REMARK SMILES COc1ccc(CNc2nc3cc(C(F)(F)F)ccc3nc2C(=O)O)cc1
REMARK SMILES IDX 8 1 7 3 6 4 3 5 4 6 27 7 5 8 26 9 2 10 1 11 9 12 10 13 22 14
REMARK SMILES IDX 11 15 21 16 12 17 20 18 13 19 19 20 18 21 23 22 24 23 25 24
REMARK SMILES IDX 14 26 15 27 16 28 17 29
REMARK H PARENT 8 2 25 25
ROOT
ATOM      1  N   UNL     1       0.247   2.113  -0.570  1.00  0.00    -0.364 N 
ATOM      2  H   UNL     1       0.599   1.880   0.361  1.00  0.00    +0.162 HD
ENDROOT
BRANCH   1   3
ATOM      3  C   UNL     1       1.212   1.671  -1.579  1.00  0.00    +0.150 C 
BRANCH   3   4
ATOM      4  C   UNL     1       2.389   0.997  -0.907  1.00  0.00    -0.029 A 
ATOM      5  C   UNL     1       4.551  -0.251   0.398  1.00  0.00    +0.118 A 
ATOM      6  C   UNL     1       4.625   1.094   0.027  1.00  0.00    +0.047 A 
ATOM      7  C   UNL     1       3.388  -0.970   0.124  1.00  0.00    +0.047 A 
ATOM      8  C   UNL     1       3.553   1.717  -0.616  1.00  0.00    +0.009 A 
ATOM      9  C   UNL     1       2.313  -0.349  -0.521  1.00  0.00    +0.009 A 
BRANCH   5  10
ATOM     10  O   UNL     1       5.669  -0.734   1.020  1.00  0.00    -0.497 OA
ATOM     11  C   UNL     1       5.643  -2.098   1.421  1.00  0.00    +0.278 C 
ENDBRANCH   5  10
ENDBRANCH   3   4
ENDBRANCH   1   3
BRANCH   1  12
ATOM     12  C   UNL     1      -0.993   1.481  -0.633  1.00  0.00    +0.160 A 
ATOM     13  N   UNL     1      -1.248   0.724   0.463  1.00  0.00    -0.227 NA
ATOM     14  C   UNL     1      -1.949   1.586  -1.651  1.00  0.00    +0.191 A 
ATOM     15  C   UNL     1      -2.423   0.072   0.527  1.00  0.00    +0.092 A 
ATOM     16  N   UNL     1      -3.142   0.918  -1.598  1.00  0.00    -0.236 NA
ATOM     17  C   UNL     1      -2.708  -0.715   1.636  1.00  0.00    +0.043 A 
ATOM     18  C   UNL     1      -3.374   0.169  -0.512  1.00  0.00    +0.090 A 
ATOM     19  C   UNL     1      -3.914  -1.424   1.751  1.00  0.00    +0.058 A 
ATOM     20  C   UNL     1      -4.571  -0.525  -0.398  1.00  0.00    +0.031 A 
ATOM     21  C   UNL     1      -4.851  -1.315   0.721  1.00  0.00    +0.015 A 
BRANCH  14  22
ATOM     22  C   UNL     1      -1.756   2.462  -2.851  1.00  0.00    +0.358 C 
ATOM     23  O   UNL     1      -0.724   2.949  -3.275  1.00  0.00    -0.244 OA
BRANCH  22  24
ATOM     24  O   UNL     1      -2.917   2.688  -3.509  1.00  0.00    -0.476 OA
ATOM     25  H   UNL     1      -2.664   3.261  -4.261  1.00  0.00    +0.297 HD
ENDBRANCH  22  24
ENDBRANCH  14  22
BRANCH  19  26
ATOM     26  C   UNL     1      -4.196  -2.252   2.981  1.00  0.00    +0.416 C 
ATOM     27  F   UNL     1      -3.092  -2.896   3.448  1.00  0.00    -0.166 F 
ATOM     28  F   UNL     1      -5.131  -3.220   2.771  1.00  0.00    -0.166 F 
ATOM     29  F   UNL     1      -4.659  -1.498   4.014  1.00  0.00    -0.166 F 
ENDBRANCH  19  26
ENDBRANCH   1  12
TORSDOF 7
