MODEL 1
REMARK VINA RESULT:    -9.003      0.000      0.000
REMARK INTER + INTRA:         -13.184
REMARK INTER:                 -11.897
REMARK INTRA:                  -1.287
REMARK UNBOUND:                -1.287
REMARK SMILES Cc1ccccc1C(=O)CN1C(=O)NC(C)(c2ccc(S(N)(=O)=O)cc2)C1=O
REMARK SMILES IDX 11 1 12 2 13 3 14 4 15 5 16 6 27 7 28 8 10 10 8 11 9 12 7 13
REMARK SMILES IDX 2 14 3 15 4 16 6 17 5 18 1 19 17 20 18 21 26 22 19 23 25 24
REMARK SMILES IDX 20 25 21 26 23 27 24 28 22 29
REMARK H PARENT 14 9 22 30 22 31
ROOT
ATOM      1  N   UNL     1      18.084 -23.096   0.661  1.00  0.00    -0.254 N 
ATOM      2  C   UNL     1      17.042 -23.953   0.798  1.00  0.00    +0.325 C 
ATOM      3  O   UNL     1      16.623 -24.744  -0.029  1.00  0.00    -0.248 OA
ATOM      4  N   UNL     1      16.515 -23.809   2.058  1.00  0.00    -0.319 N 
ATOM      5  C   UNL     1      17.297 -22.913   2.889  1.00  0.00    +0.144 C 
ATOM      6  C   UNL     1      18.014 -23.719   3.977  1.00  0.00    +0.051 C 
ATOM      7  C   UNL     1      18.330 -22.441   1.836  1.00  0.00    +0.261 C 
ATOM      8  O   UNL     1      19.236 -21.638   2.026  1.00  0.00    -0.271 OA
ATOM      9  H   UNL     1      15.818 -24.457   2.396  1.00  0.00    +0.166 HD
ENDROOT
BRANCH   1  10
ATOM     10  C   UNL     1      18.937 -23.037  -0.502  1.00  0.00    +0.211 C 
BRANCH  10  11
ATOM     11  C   UNL     1      18.172 -22.351  -1.624  1.00  0.00    +0.183 C 
ATOM     12  O   UNL     1      18.158 -22.721  -2.794  1.00  0.00    -0.292 OA
BRANCH  11  13
ATOM     13  C   UNL     1      17.449 -21.121  -1.252  1.00  0.00    +0.022 A 
ATOM     14  C   UNL     1      16.045 -21.069  -1.261  1.00  0.00    -0.040 A 
ATOM     15  C   UNL     1      15.426 -19.879  -0.850  1.00  0.00    +0.004 A 
ATOM     16  C   UNL     1      16.189 -18.772  -0.470  1.00  0.00    +0.000 A 
ATOM     17  C   UNL     1      18.216 -20.009  -0.886  1.00  0.00    +0.012 A 
ATOM     18  C   UNL     1      17.581 -18.834  -0.494  1.00  0.00    +0.001 A 
ATOM     19  C   UNL     1      15.202 -22.244  -1.669  1.00  0.00    +0.045 C 
ENDBRANCH  11  13
ENDBRANCH  10  11
ENDBRANCH   1  10
BRANCH   5  20
ATOM     20  C   UNL     1      16.473 -21.760   3.463  1.00  0.00    -0.013 A 
ATOM     21  C   UNL     1      15.759 -21.936   4.665  1.00  0.00    +0.008 A 
ATOM     22  C   UNL     1      16.398 -20.504   2.830  1.00  0.00    +0.008 A 
ATOM     23  C   UNL     1      14.997 -20.902   5.215  1.00  0.00    +0.022 A 
ATOM     24  C   UNL     1      15.636 -19.465   3.373  1.00  0.00    +0.022 A 
ATOM     25  C   UNL     1      14.932 -19.673   4.558  1.00  0.00    +0.082 A 
BRANCH  25  26
ATOM     26  S   UNL     1      13.973 -18.360   5.264  1.00  0.00    +0.238 S 
ATOM     27  O   UNL     1      12.610 -18.811   5.401  1.00  0.00    -0.207 OA
ATOM     28  O   UNL     1      14.719 -17.785   6.361  1.00  0.00    -0.207 OA
BRANCH  26  29
ATOM     29  N   UNL     1      14.021 -17.210   4.035  1.00  0.00    -0.225 NA
ATOM     30  H   UNL     1      14.968 -16.946   3.765  1.00  0.00    +0.137 HD
ATOM     31  H   UNL     1      13.464 -16.402   4.319  1.00  0.00    +0.137 HD
ENDBRANCH  26  29
ENDBRANCH  25  26
ENDBRANCH   5  20
TORSDOF 6
ENDMDL
MODEL 2
REMARK VINA RESULT:    -7.883      1.692      4.259
REMARK INTER + INTRA:         -11.704
REMARK INTER:                 -10.503
REMARK INTRA:                  -1.201
REMARK UNBOUND:                -1.287
REMARK SMILES Cc1ccccc1C(=O)CN1C(=O)NC(C)(c2ccc(S(N)(=O)=O)cc2)C1=O
REMARK SMILES IDX 11 1 12 2 13 3 14 4 15 5 16 6 27 7 28 8 10 10 8 11 9 12 7 13
REMARK SMILES IDX 2 14 3 15 4 16 6 17 5 18 1 19 17 20 18 21 26 22 19 23 25 24
REMARK SMILES IDX 20 25 21 26 23 27 24 28 22 29
REMARK H PARENT 14 9 22 30 22 31
ROOT
ATOM      1  N   UNL     1      17.995 -22.258  -0.048  1.00  0.00    -0.254 N 
ATOM      2  C   UNL     1      19.058 -21.562   0.426  1.00  0.00    +0.325 C 
ATOM      3  O   UNL     1      20.198 -21.967   0.574  1.00  0.00    -0.248 OA
ATOM      4  N   UNL     1      18.655 -20.281   0.711  1.00  0.00    -0.319 N 
ATOM      5  C   UNL     1      17.289 -20.022   0.298  1.00  0.00    +0.144 C 
ATOM      6  C   UNL     1      17.289 -19.070  -0.902  1.00  0.00    +0.051 C 
ATOM      7  C   UNL     1      16.903 -21.445  -0.177  1.00  0.00    +0.261 C 
ATOM      8  O   UNL     1      15.812 -21.785  -0.620  1.00  0.00    -0.271 OA
ATOM      9  H   UNL     1      19.336 -19.574   0.948  1.00  0.00    +0.166 HD
ENDROOT
BRANCH   1  10
ATOM     10  C   UNL     1      18.067 -23.613  -0.540  1.00  0.00    +0.211 C 
BRANCH  10  11
ATOM     11  C   UNL     1      17.498 -24.540   0.525  1.00  0.00    +0.183 C 
ATOM     12  O   UNL     1      16.629 -25.384   0.331  1.00  0.00    -0.292 OA
BRANCH  11  13
ATOM     13  C   UNL     1      18.012 -24.341   1.893  1.00  0.00    +0.022 A 
ATOM     14  C   UNL     1      19.253 -24.866   2.289  1.00  0.00    -0.040 A 
ATOM     15  C   UNL     1      19.698 -24.596   3.592  1.00  0.00    +0.004 A 
ATOM     16  C   UNL     1      18.913 -23.850   4.475  1.00  0.00    +0.000 A 
ATOM     17  C   UNL     1      17.216 -23.605   2.779  1.00  0.00    +0.012 A 
ATOM     18  C   UNL     1      17.671 -23.361   4.072  1.00  0.00    +0.001 A 
ATOM     19  C   UNL     1      20.114 -25.674   1.361  1.00  0.00    +0.045 C 
ENDBRANCH  11  13
ENDBRANCH  10  11
ENDBRANCH   1  10
BRANCH   5  20
ATOM     20  C   UNL     1      16.404 -19.522   1.440  1.00  0.00    -0.013 A 
ATOM     21  C   UNL     1      16.533 -20.082   2.727  1.00  0.00    +0.008 A 
ATOM     22  C   UNL     1      15.448 -18.504   1.258  1.00  0.00    +0.008 A 
ATOM     23  C   UNL     1      15.739 -19.648   3.791  1.00  0.00    +0.022 A 
ATOM     24  C   UNL     1      14.649 -18.064   2.318  1.00  0.00    +0.022 A 
ATOM     25  C   UNL     1      14.792 -18.646   3.577  1.00  0.00    +0.082 A 
BRANCH  25  26
ATOM     26  S   UNL     1      13.795 -18.090   4.932  1.00  0.00    +0.238 S 
ATOM     27  O   UNL     1      13.136 -16.867   4.545  1.00  0.00    -0.207 OA
ATOM     28  O   UNL     1      13.080 -19.225   5.473  1.00  0.00    -0.207 OA
BRANCH  26  29
ATOM     29  N   UNL     1      14.968 -17.710   6.079  1.00  0.00    -0.225 NA
ATOM     30  H   UNL     1      15.890 -17.548   5.677  1.00  0.00    +0.137 HD
ATOM     31  H   UNL     1      14.983 -18.444   6.789  1.00  0.00    +0.137 HD
ENDBRANCH  26  29
ENDBRANCH  25  26
ENDBRANCH   5  20
TORSDOF 6
ENDMDL
MODEL 3
REMARK VINA RESULT:    -7.746      3.560      7.107
REMARK INTER + INTRA:         -11.523
REMARK INTER:                 -10.777
REMARK INTRA:                  -0.746
REMARK UNBOUND:                -1.287
REMARK SMILES Cc1ccccc1C(=O)CN1C(=O)NC(C)(c2ccc(S(N)(=O)=O)cc2)C1=O
REMARK SMILES IDX 11 1 12 2 13 3 14 4 15 5 16 6 27 7 28 8 10 10 8 11 9 12 7 13
REMARK SMILES IDX 2 14 3 15 4 16 6 17 5 18 1 19 17 20 18 21 26 22 19 23 25 24
REMARK SMILES IDX 20 25 21 26 23 27 24 28 22 29
REMARK H PARENT 14 9 22 30 22 31
ROOT
ATOM      1  N   UNL     1      17.923 -22.225   3.521  1.00  0.00    -0.254 N 
ATOM      2  C   UNL     1      18.395 -23.496   3.487  1.00  0.00    +0.325 C 
ATOM      3  O   UNL     1      18.949 -24.102   4.388  1.00  0.00    -0.248 OA
ATOM      4  N   UNL     1      18.134 -24.031   2.249  1.00  0.00    -0.319 N 
ATOM      5  C   UNL     1      17.330 -23.152   1.421  1.00  0.00    +0.144 C 
ATOM      6  C   UNL     1      15.925 -23.743   1.263  1.00  0.00    +0.051 C 
ATOM      7  C   UNL     1      17.265 -21.922   2.361  1.00  0.00    +0.261 C 
ATOM      8  O   UNL     1      16.698 -20.862   2.121  1.00  0.00    -0.271 OA
ATOM      9  H   UNL     1      18.290 -25.014   2.076  1.00  0.00    +0.166 HD
ENDROOT
BRANCH   1  10
ATOM     10  C   UNL     1      17.936 -21.387   4.696  1.00  0.00    +0.211 C 
BRANCH  10  11
ATOM     11  C   UNL     1      16.670 -21.663   5.495  1.00  0.00    +0.183 C 
ATOM     12  O   UNL     1      16.365 -22.750   5.975  1.00  0.00    -0.292 OA
BRANCH  11  13
ATOM     13  C   UNL     1      15.736 -20.530   5.634  1.00  0.00    +0.022 A 
ATOM     14  C   UNL     1      14.386 -20.649   5.267  1.00  0.00    -0.040 A 
ATOM     15  C   UNL     1      13.546 -19.545   5.472  1.00  0.00    +0.004 A 
ATOM     16  C   UNL     1      14.051 -18.352   5.998  1.00  0.00    +0.000 A 
ATOM     17  C   UNL     1      16.248 -19.333   6.148  1.00  0.00    +0.012 A 
ATOM     18  C   UNL     1      15.400 -18.244   6.330  1.00  0.00    +0.001 A 
ATOM     19  C   UNL     1      13.820 -21.918   4.696  1.00  0.00    +0.045 C 
ENDBRANCH  11  13
ENDBRANCH  10  11
ENDBRANCH   1  10
BRANCH   5  20
ATOM     20  C   UNL     1      17.984 -22.833   0.078  1.00  0.00    -0.013 A 
ATOM     21  C   UNL     1      19.384 -22.691  -0.007  1.00  0.00    +0.008 A 
ATOM     22  C   UNL     1      17.234 -22.673  -1.104  1.00  0.00    +0.008 A 
ATOM     23  C   UNL     1      20.012 -22.399  -1.220  1.00  0.00    +0.022 A 
ATOM     24  C   UNL     1      17.855 -22.379  -2.321  1.00  0.00    +0.022 A 
ATOM     25  C   UNL     1      19.241 -22.234  -2.371  1.00  0.00    +0.082 A 
BRANCH  25  26
ATOM     26  S   UNL     1      20.042 -21.874  -3.910  1.00  0.00    +0.238 S 
ATOM     27  O   UNL     1      20.329 -23.118  -4.580  1.00  0.00    -0.207 OA
ATOM     28  O   UNL     1      19.339 -20.786  -4.552  1.00  0.00    -0.207 OA
BRANCH  26  29
ATOM     29  N   UNL     1      21.501 -21.217  -3.383  1.00  0.00    -0.225 NA
ATOM     30  H   UNL     1      21.806 -21.580  -2.481  1.00  0.00    +0.137 HD
ATOM     31  H   UNL     1      21.421 -20.199  -3.380  1.00  0.00    +0.137 HD
ENDBRANCH  26  29
ENDBRANCH  25  26
ENDBRANCH   5  20
TORSDOF 6
ENDMDL
MODEL 4
REMARK VINA RESULT:    -7.680      3.558      7.460
REMARK INTER + INTRA:         -11.437
REMARK INTER:                 -10.681
REMARK INTRA:                  -0.756
REMARK UNBOUND:                -1.287
REMARK SMILES Cc1ccccc1C(=O)CN1C(=O)NC(C)(c2ccc(S(N)(=O)=O)cc2)C1=O
REMARK SMILES IDX 11 1 12 2 13 3 14 4 15 5 16 6 27 7 28 8 10 10 8 11 9 12 7 13
REMARK SMILES IDX 2 14 3 15 4 16 6 17 5 18 1 19 17 20 18 21 26 22 19 23 25 24
REMARK SMILES IDX 20 25 21 26 23 27 24 28 22 29
REMARK H PARENT 14 9 22 30 22 31
ROOT
ATOM      1  N   UNL     1      17.633 -22.061   2.323  1.00  0.00    -0.254 N 
ATOM      2  C   UNL     1      18.000 -23.367   2.344  1.00  0.00    +0.325 C 
ATOM      3  O   UNL     1      18.319 -24.028   3.318  1.00  0.00    -0.248 OA
ATOM      4  N   UNL     1      17.942 -23.863   1.065  1.00  0.00    -0.319 N 
ATOM      5  C   UNL     1      17.385 -22.911   0.123  1.00  0.00    +0.144 C 
ATOM      6  C   UNL     1      15.995 -23.380  -0.317  1.00  0.00    +0.051 C 
ATOM      7  C   UNL     1      17.238 -21.691   1.067  1.00  0.00    +0.261 C 
ATOM      8  O   UNL     1      16.815 -20.584   0.752  1.00  0.00    -0.271 OA
ATOM      9  H   UNL     1      18.049 -24.854   0.898  1.00  0.00    +0.166 HD
ENDROOT
BRANCH   1  10
ATOM     10  C   UNL     1      17.485 -21.241   3.501  1.00  0.00    +0.211 C 
BRANCH  10  11
ATOM     11  C   UNL     1      16.047 -21.353   3.985  1.00  0.00    +0.183 C 
ATOM     12  O   UNL     1      15.343 -22.352   3.872  1.00  0.00    -0.292 OA
BRANCH  11  13
ATOM     13  C   UNL     1      15.470 -20.132   4.578  1.00  0.00    +0.022 A 
ATOM     14  C   UNL     1      15.622 -19.842   5.943  1.00  0.00    -0.040 A 
ATOM     15  C   UNL     1      15.087 -18.639   6.427  1.00  0.00    +0.004 A 
ATOM     16  C   UNL     1      14.398 -17.771   5.576  1.00  0.00    +0.000 A 
ATOM     17  C   UNL     1      14.769 -19.272   3.725  1.00  0.00    +0.012 A 
ATOM     18  C   UNL     1      14.233 -18.089   4.228  1.00  0.00    +0.001 A 
ATOM     19  C   UNL     1      16.355 -20.760   6.881  1.00  0.00    +0.045 C 
ENDBRANCH  11  13
ENDBRANCH  10  11
ENDBRANCH   1  10
BRANCH   5  20
ATOM     20  C   UNL     1      18.310 -22.631  -1.061  1.00  0.00    -0.013 A 
ATOM     21  C   UNL     1      17.876 -21.800  -2.112  1.00  0.00    +0.008 A 
ATOM     22  C   UNL     1      19.606 -23.178  -1.146  1.00  0.00    +0.008 A 
ATOM     23  C   UNL     1      18.698 -21.525  -3.208  1.00  0.00    +0.022 A 
ATOM     24  C   UNL     1      20.434 -22.910  -2.240  1.00  0.00    +0.022 A 
ATOM     25  C   UNL     1      19.971 -22.092  -3.270  1.00  0.00    +0.082 A 
BRANCH  25  26
ATOM     26  S   UNL     1      21.014 -21.732  -4.657  1.00  0.00    +0.238 S 
ATOM     27  O   UNL     1      21.802 -20.565  -4.347  1.00  0.00    -0.207 OA
ATOM     28  O   UNL     1      21.601 -22.968  -5.124  1.00  0.00    -0.207 OA
BRANCH  26  29
ATOM     29  N   UNL     1      19.882 -21.302  -5.827  1.00  0.00    -0.225 NA
ATOM     30  H   UNL     1      18.928 -21.561  -5.581  1.00  0.00    +0.137 HD
ATOM     31  H   UNL     1      20.168 -21.700  -6.723  1.00  0.00    +0.137 HD
ENDBRANCH  26  29
ENDBRANCH  25  26
ENDBRANCH   5  20
TORSDOF 6
ENDMDL
MODEL 5
REMARK VINA RESULT:    -7.640      3.484      7.372
REMARK INTER + INTRA:         -11.384
REMARK INTER:                 -11.419
REMARK INTRA:                   0.035
REMARK UNBOUND:                -1.287
REMARK SMILES Cc1ccccc1C(=O)CN1C(=O)NC(C)(c2ccc(S(N)(=O)=O)cc2)C1=O
REMARK SMILES IDX 11 1 12 2 13 3 14 4 15 5 16 6 27 7 28 8 10 10 8 11 9 12 7 13
REMARK SMILES IDX 2 14 3 15 4 16 6 17 5 18 1 19 17 20 18 21 26 22 19 23 25 24
REMARK SMILES IDX 20 25 21 26 23 27 24 28 22 29
REMARK H PARENT 14 9 22 30 22 31
ROOT
ATOM      1  N   UNL     1      17.184 -20.759   2.299  1.00  0.00    -0.254 N 
ATOM      2  C   UNL     1      17.971 -21.781   2.717  1.00  0.00    +0.325 C 
ATOM      3  O   UNL     1      18.459 -21.932   3.824  1.00  0.00    -0.248 OA
ATOM      4  N   UNL     1      18.132 -22.667   1.680  1.00  0.00    -0.319 N 
ATOM      5  C   UNL     1      17.320 -22.327   0.527  1.00  0.00    +0.144 C 
ATOM      6  C   UNL     1      16.189 -23.349   0.378  1.00  0.00    +0.051 C 
ATOM      7  C   UNL     1      16.734 -20.983   1.027  1.00  0.00    +0.261 C 
ATOM      8  O   UNL     1      15.972 -20.253   0.404  1.00  0.00    -0.271 OA
ATOM      9  H   UNL     1      18.575 -23.561   1.838  1.00  0.00    +0.166 HD
ENDROOT
BRANCH   1  10
ATOM     10  C   UNL     1      16.724 -19.689   3.152  1.00  0.00    +0.211 C 
BRANCH  10  11
ATOM     11  C   UNL     1      15.467 -20.157   3.871  1.00  0.00    +0.183 C 
ATOM     12  O   UNL     1      15.144 -21.331   4.030  1.00  0.00    -0.292 OA
BRANCH  11  13
ATOM     13  C   UNL     1      14.565 -19.093   4.351  1.00  0.00    +0.022 A 
ATOM     14  C   UNL     1      14.175 -18.037   3.512  1.00  0.00    -0.040 A 
ATOM     15  C   UNL     1      13.277 -17.087   4.022  1.00  0.00    +0.004 A 
ATOM     16  C   UNL     1      12.811 -17.178   5.337  1.00  0.00    +0.000 A 
ATOM     17  C   UNL     1      14.112 -19.181   5.672  1.00  0.00    +0.012 A 
ATOM     18  C   UNL     1      13.232 -18.220   6.163  1.00  0.00    +0.001 A 
ATOM     19  C   UNL     1      14.664 -17.913   2.097  1.00  0.00    +0.045 C 
ENDBRANCH  11  13
ENDBRANCH  10  11
ENDBRANCH   1  10
BRANCH   5  20
ATOM     20  C   UNL     1      18.139 -22.171  -0.754  1.00  0.00    -0.013 A 
ATOM     21  C   UNL     1      19.543 -22.284  -0.710  1.00  0.00    +0.008 A 
ATOM     22  C   UNL     1      17.538 -21.916  -2.003  1.00  0.00    +0.008 A 
ATOM     23  C   UNL     1      20.319 -22.147  -1.864  1.00  0.00    +0.022 A 
ATOM     24  C   UNL     1      18.308 -21.775  -3.161  1.00  0.00    +0.022 A 
ATOM     25  C   UNL     1      19.696 -21.882  -3.083  1.00  0.00    +0.082 A 
BRANCH  25  26
ATOM     26  S   UNL     1      20.684 -21.718  -4.546  1.00  0.00    +0.238 S 
ATOM     27  O   UNL     1      21.785 -20.833  -4.258  1.00  0.00    -0.207 OA
ATOM     28  O   UNL     1      20.868 -23.030  -5.125  1.00  0.00    -0.207 OA
BRANCH  26  29
ATOM     29  N   UNL     1      19.624 -20.915  -5.579  1.00  0.00    -0.225 NA
ATOM     30  H   UNL     1      19.542 -21.354  -6.495  1.00  0.00    +0.137 HD
ATOM     31  H   UNL     1      19.909 -19.937  -5.647  1.00  0.00    +0.137 HD
ENDBRANCH  26  29
ENDBRANCH  25  26
ENDBRANCH   5  20
TORSDOF 6
ENDMDL
MODEL 6
REMARK VINA RESULT:    -7.629      1.927      4.243
REMARK INTER + INTRA:         -11.369
REMARK INTER:                  -9.656
REMARK INTRA:                  -1.712
REMARK UNBOUND:                -1.287
REMARK SMILES Cc1ccccc1C(=O)CN1C(=O)NC(C)(c2ccc(S(N)(=O)=O)cc2)C1=O
REMARK SMILES IDX 11 1 12 2 13 3 14 4 15 5 16 6 27 7 28 8 10 10 8 11 9 12 7 13
REMARK SMILES IDX 2 14 3 15 4 16 6 17 5 18 1 19 17 20 18 21 26 22 19 23 25 24
REMARK SMILES IDX 20 25 21 26 23 27 24 28 22 29
REMARK H PARENT 14 9 22 30 22 31
ROOT
ATOM      1  N   UNL     1      18.030 -21.864  -1.065  1.00  0.00    -0.254 N 
ATOM      2  C   UNL     1      18.649 -20.661  -1.145  1.00  0.00    +0.325 C 
ATOM      3  O   UNL     1      19.715 -20.413  -1.682  1.00  0.00    -0.248 OA
ATOM      4  N   UNL     1      17.866 -19.719  -0.525  1.00  0.00    -0.319 N 
ATOM      5  C   UNL     1      16.582 -20.250  -0.108  1.00  0.00    +0.144 C 
ATOM      6  C   UNL     1      15.475 -19.661  -0.987  1.00  0.00    +0.051 C 
ATOM      7  C   UNL     1      16.798 -21.737  -0.484  1.00  0.00    +0.261 C 
ATOM      8  O   UNL     1      15.994 -22.647  -0.317  1.00  0.00    -0.271 OA
ATOM      9  H   UNL     1      18.095 -18.738  -0.598  1.00  0.00    +0.166 HD
ENDROOT
BRANCH   1  10
ATOM     10  C   UNL     1      18.517 -23.070  -1.692  1.00  0.00    +0.211 C 
BRANCH  10  11
ATOM     11  C   UNL     1      19.566 -23.692  -0.781  1.00  0.00    +0.183 C 
ATOM     12  O   UNL     1      20.736 -23.895  -1.092  1.00  0.00    -0.292 OA
BRANCH  11  13
ATOM     13  C   UNL     1      19.092 -24.123   0.547  1.00  0.00    +0.022 A 
ATOM     14  C   UNL     1      19.462 -23.433   1.713  1.00  0.00    -0.040 A 
ATOM     15  C   UNL     1      18.934 -23.872   2.936  1.00  0.00    +0.004 A 
ATOM     16  C   UNL     1      18.088 -24.983   2.991  1.00  0.00    +0.000 A 
ATOM     17  C   UNL     1      18.256 -25.244   0.599  1.00  0.00    +0.012 A 
ATOM     18  C   UNL     1      17.754 -25.672   1.826  1.00  0.00    +0.001 A 
ATOM     19  C   UNL     1      20.374 -22.239   1.682  1.00  0.00    +0.045 C 
ENDBRANCH  11  13
ENDBRANCH  10  11
ENDBRANCH   1  10
BRANCH   5  20
ATOM     20  C   UNL     1      16.311 -20.054   1.384  1.00  0.00    -0.013 A 
ATOM     21  C   UNL     1      15.424 -19.046   1.811  1.00  0.00    +0.008 A 
ATOM     22  C   UNL     1      16.921 -20.855   2.369  1.00  0.00    +0.008 A 
ATOM     23  C   UNL     1      15.155 -18.842   3.167  1.00  0.00    +0.022 A 
ATOM     24  C   UNL     1      16.659 -20.656   3.728  1.00  0.00    +0.022 A 
ATOM     25  C   UNL     1      15.784 -19.644   4.120  1.00  0.00    +0.082 A 
BRANCH  25  26
ATOM     26  S   UNL     1      15.433 -19.388   5.838  1.00  0.00    +0.238 S 
ATOM     27  O   UNL     1      14.048 -19.007   5.971  1.00  0.00    -0.207 OA
ATOM     28  O   UNL     1      16.019 -20.472   6.593  1.00  0.00    -0.207 OA
BRANCH  26  29
ATOM     29  N   UNL     1      16.381 -18.038   6.178  1.00  0.00    -0.225 NA
ATOM     30  H   UNL     1      15.958 -17.161   5.880  1.00  0.00    +0.137 HD
ATOM     31  H   UNL     1      17.307 -18.176   5.770  1.00  0.00    +0.137 HD
ENDBRANCH  26  29
ENDBRANCH  25  26
ENDBRANCH   5  20
TORSDOF 6
ENDMDL
MODEL 7
REMARK VINA RESULT:    -7.549      4.452      7.250
REMARK INTER + INTRA:         -11.263
REMARK INTER:                 -10.705
REMARK INTRA:                  -0.558
REMARK UNBOUND:                -1.287
REMARK SMILES Cc1ccccc1C(=O)CN1C(=O)NC(C)(c2ccc(S(N)(=O)=O)cc2)C1=O
REMARK SMILES IDX 11 1 12 2 13 3 14 4 15 5 16 6 27 7 28 8 10 10 8 11 9 12 7 13
REMARK SMILES IDX 2 14 3 15 4 16 6 17 5 18 1 19 17 20 18 21 26 22 19 23 25 24
REMARK SMILES IDX 20 25 21 26 23 27 24 28 22 29
REMARK H PARENT 14 9 22 30 22 31
ROOT
ATOM      1  N   UNL     1      18.335 -23.056   2.475  1.00  0.00    -0.254 N 
ATOM      2  C   UNL     1      18.599 -24.385   2.514  1.00  0.00    +0.325 C 
ATOM      3  O   UNL     1      17.830 -25.281   2.817  1.00  0.00    -0.248 OA
ATOM      4  N   UNL     1      19.902 -24.589   2.131  1.00  0.00    -0.319 N 
ATOM      5  C   UNL     1      20.545 -23.371   1.677  1.00  0.00    +0.144 C 
ATOM      6  C   UNL     1      20.763 -23.442   0.162  1.00  0.00    +0.051 C 
ATOM      7  C   UNL     1      19.408 -22.364   1.984  1.00  0.00    +0.261 C 
ATOM      8  O   UNL     1      19.448 -21.154   1.795  1.00  0.00    -0.271 OA
ATOM      9  H   UNL     1      20.245 -25.525   1.968  1.00  0.00    +0.166 HD
ENDROOT
BRANCH   1  10
ATOM     10  C   UNL     1      17.036 -22.479   2.723  1.00  0.00    +0.211 C 
BRANCH  10  11
ATOM     11  C   UNL     1      17.072 -21.778   4.073  1.00  0.00    +0.183 C 
ATOM     12  O   UNL     1      17.879 -22.016   4.967  1.00  0.00    -0.292 OA
BRANCH  11  13
ATOM     13  C   UNL     1      16.009 -20.785   4.312  1.00  0.00    +0.022 A 
ATOM     14  C   UNL     1      15.176 -20.866   5.440  1.00  0.00    -0.040 A 
ATOM     15  C   UNL     1      14.217 -19.859   5.626  1.00  0.00    +0.004 A 
ATOM     16  C   UNL     1      14.080 -18.823   4.698  1.00  0.00    +0.000 A 
ATOM     17  C   UNL     1      15.866 -19.757   3.374  1.00  0.00    +0.012 A 
ATOM     18  C   UNL     1      14.899 -18.774   3.571  1.00  0.00    +0.001 A 
ATOM     19  C   UNL     1      15.299 -21.971   6.450  1.00  0.00    +0.045 C 
ENDBRANCH  11  13
ENDBRANCH  10  11
ENDBRANCH   1  10
BRANCH   5  20
ATOM     20  C   UNL     1      21.832 -23.055   2.438  1.00  0.00    -0.013 A 
ATOM     21  C   UNL     1      22.087 -23.676   3.677  1.00  0.00    +0.008 A 
ATOM     22  C   UNL     1      22.795 -22.154   1.944  1.00  0.00    +0.008 A 
ATOM     23  C   UNL     1      23.254 -23.409   4.397  1.00  0.00    +0.022 A 
ATOM     24  C   UNL     1      23.965 -21.879   2.659  1.00  0.00    +0.022 A 
ATOM     25  C   UNL     1      24.183 -22.501   3.887  1.00  0.00    +0.082 A 
BRANCH  25  26
ATOM     26  S   UNL     1      25.667 -22.173   4.799  1.00  0.00    +0.238 S 
ATOM     27  O   UNL     1      26.683 -23.102   4.371  1.00  0.00    -0.207 OA
ATOM     28  O   UNL     1      25.880 -20.743   4.831  1.00  0.00    -0.207 OA
BRANCH  26  29
ATOM     29  N   UNL     1      25.201 -22.592   6.362  1.00  0.00    -0.225 NA
ATOM     30  H   UNL     1      24.379 -23.194   6.391  1.00  0.00    +0.137 HD
ATOM     31  H   UNL     1      25.070 -21.739   6.907  1.00  0.00    +0.137 HD
ENDBRANCH  26  29
ENDBRANCH  25  26
ENDBRANCH   5  20
TORSDOF 6
ENDMDL
MODEL 8
REMARK VINA RESULT:    -7.546      2.037      2.398
REMARK INTER + INTRA:         -11.259
REMARK INTER:                  -9.524
REMARK INTRA:                  -1.735
REMARK UNBOUND:                -1.287
REMARK SMILES Cc1ccccc1C(=O)CN1C(=O)NC(C)(c2ccc(S(N)(=O)=O)cc2)C1=O
REMARK SMILES IDX 11 1 12 2 13 3 14 4 15 5 16 6 27 7 28 8 10 10 8 11 9 12 7 13
REMARK SMILES IDX 2 14 3 15 4 16 6 17 5 18 1 19 17 20 18 21 26 22 19 23 25 24
REMARK SMILES IDX 20 25 21 26 23 27 24 28 22 29
REMARK H PARENT 14 9 22 30 22 31
ROOT
ATOM      1  N   UNL     1      19.843 -22.990   0.155  1.00  0.00    -0.254 N 
ATOM      2  C   UNL     1      19.538 -24.295   0.359  1.00  0.00    +0.325 C 
ATOM      3  O   UNL     1      19.557 -25.195  -0.464  1.00  0.00    -0.248 OA
ATOM      4  N   UNL     1      19.207 -24.471   1.680  1.00  0.00    -0.319 N 
ATOM      5  C   UNL     1      19.416 -23.272   2.470  1.00  0.00    +0.144 C 
ATOM      6  C   UNL     1      20.611 -23.477   3.406  1.00  0.00    +0.051 C 
ATOM      7  C   UNL     1      19.816 -22.297   1.334  1.00  0.00    +0.261 C 
ATOM      8  O   UNL     1      20.089 -21.110   1.467  1.00  0.00    -0.271 OA
ATOM      9  H   UNL     1      19.080 -25.401   2.054  1.00  0.00    +0.166 HD
ENDROOT
BRANCH   1  10
ATOM     10  C   UNL     1      20.328 -22.456  -1.095  1.00  0.00    +0.211 C 
BRANCH  10  11
ATOM     11  C   UNL     1      19.134 -22.214  -2.007  1.00  0.00    +0.183 C 
ATOM     12  O   UNL     1      18.980 -22.722  -3.114  1.00  0.00    -0.292 OA
BRANCH  11  13
ATOM     13  C   UNL     1      18.136 -21.245  -1.517  1.00  0.00    +0.022 A 
ATOM     14  C   UNL     1      16.872 -21.664  -1.072  1.00  0.00    -0.040 A 
ATOM     15  C   UNL     1      15.991 -20.691  -0.575  1.00  0.00    +0.004 A 
ATOM     16  C   UNL     1      16.356 -19.342  -0.553  1.00  0.00    +0.000 A 
ATOM     17  C   UNL     1      18.500 -19.894  -1.510  1.00  0.00    +0.012 A 
ATOM     18  C   UNL     1      17.605 -18.943  -1.025  1.00  0.00    +0.001 A 
ATOM     19  C   UNL     1      16.453 -23.107  -1.089  1.00  0.00    +0.045 C 
ENDBRANCH  11  13
ENDBRANCH  10  11
ENDBRANCH   1  10
BRANCH   5  20
ATOM     20  C   UNL     1      18.160 -22.823   3.216  1.00  0.00    -0.013 A 
ATOM     21  C   UNL     1      18.179 -22.706   4.620  1.00  0.00    +0.008 A 
ATOM     22  C   UNL     1      16.960 -22.512   2.546  1.00  0.00    +0.008 A 
ATOM     23  C   UNL     1      17.048 -22.298   5.331  1.00  0.00    +0.022 A 
ATOM     24  C   UNL     1      15.823 -22.104   3.250  1.00  0.00    +0.022 A 
ATOM     25  C   UNL     1      15.870 -22.009   4.640  1.00  0.00    +0.082 A 
BRANCH  25  26
ATOM     26  S   UNL     1      14.441 -21.481   5.545  1.00  0.00    +0.238 S 
ATOM     27  O   UNL     1      14.565 -20.071   5.816  1.00  0.00    -0.207 OA
ATOM     28  O   UNL     1      13.267 -22.057   4.927  1.00  0.00    -0.207 OA
BRANCH  26  29
ATOM     29  N   UNL     1      14.637 -22.311   6.997  1.00  0.00    -0.225 NA
ATOM     30  H   UNL     1      15.396 -22.990   6.976  1.00  0.00    +0.137 HD
ATOM     31  H   UNL     1      13.746 -22.740   7.254  1.00  0.00    +0.137 HD
ENDBRANCH  26  29
ENDBRANCH  25  26
ENDBRANCH   5  20
TORSDOF 6
ENDMDL
MODEL 9
REMARK VINA RESULT:    -7.426      3.745      7.723
REMARK INTER + INTRA:         -11.101
REMARK INTER:                 -10.833
REMARK INTRA:                  -0.268
REMARK UNBOUND:                -1.287
REMARK SMILES Cc1ccccc1C(=O)CN1C(=O)NC(C)(c2ccc(S(N)(=O)=O)cc2)C1=O
REMARK SMILES IDX 11 1 12 2 13 3 14 4 15 5 16 6 27 7 28 8 10 10 8 11 9 12 7 13
REMARK SMILES IDX 2 14 3 15 4 16 6 17 5 18 1 19 17 20 18 21 26 22 19 23 25 24
REMARK SMILES IDX 20 25 21 26 23 27 24 28 22 29
REMARK H PARENT 14 9 22 30 22 31
ROOT
ATOM      1  N   UNL     1      17.149 -20.531   1.209  1.00  0.00    -0.254 N 
ATOM      2  C   UNL     1      16.886 -21.840   1.448  1.00  0.00    +0.325 C 
ATOM      3  O   UNL     1      16.564 -22.346   2.509  1.00  0.00    -0.248 OA
ATOM      4  N   UNL     1      17.023 -22.539   0.274  1.00  0.00    -0.319 N 
ATOM      5  C   UNL     1      17.262 -21.673  -0.865  1.00  0.00    +0.144 C 
ATOM      6  C   UNL     1      16.022 -21.659  -1.766  1.00  0.00    +0.051 C 
ATOM      7  C   UNL     1      17.371 -20.317  -0.124  1.00  0.00    +0.261 C 
ATOM      8  O   UNL     1      17.591 -19.229  -0.642  1.00  0.00    -0.271 OA
ATOM      9  H   UNL     1      16.737 -23.506   0.221  1.00  0.00    +0.166 HD
ENDROOT
BRANCH   1  10
ATOM     10  C   UNL     1      17.010 -19.484   2.193  1.00  0.00    +0.211 C 
BRANCH  10  11
ATOM     11  C   UNL     1      15.570 -18.994   2.170  1.00  0.00    +0.183 C 
ATOM     12  O   UNL     1      14.979 -18.592   1.172  1.00  0.00    -0.292 OA
BRANCH  11  13
ATOM     13  C   UNL     1      14.881 -18.958   3.474  1.00  0.00    +0.022 A 
ATOM     14  C   UNL     1      13.984 -17.927   3.797  1.00  0.00    -0.040 A 
ATOM     15  C   UNL     1      13.330 -17.985   5.036  1.00  0.00    +0.004 A 
ATOM     16  C   UNL     1      13.588 -19.025   5.932  1.00  0.00    +0.000 A 
ATOM     17  C   UNL     1      15.152 -19.995   4.373  1.00  0.00    +0.012 A 
ATOM     18  C   UNL     1      14.502 -20.026   5.604  1.00  0.00    +0.001 A 
ATOM     19  C   UNL     1      13.692 -16.794   2.854  1.00  0.00    +0.045 C 
ENDBRANCH  11  13
ENDBRANCH  10  11
ENDBRANCH   1  10
BRANCH   5  20
ATOM     20  C   UNL     1      18.536 -22.029  -1.630  1.00  0.00    -0.013 A 
ATOM     21  C   UNL     1      19.532 -22.811  -1.012  1.00  0.00    +0.008 A 
ATOM     22  C   UNL     1      18.761 -21.603  -2.954  1.00  0.00    +0.008 A 
ATOM     23  C   UNL     1      20.708 -23.154  -1.684  1.00  0.00    +0.022 A 
ATOM     24  C   UNL     1      19.936 -21.940  -3.633  1.00  0.00    +0.022 A 
ATOM     25  C   UNL     1      20.908 -22.706  -2.990  1.00  0.00    +0.082 A 
BRANCH  25  26
ATOM     26  S   UNL     1      22.396 -23.152  -3.843  1.00  0.00    +0.238 S 
ATOM     27  O   UNL     1      22.718 -22.105  -4.780  1.00  0.00    -0.207 OA
ATOM     28  O   UNL     1      23.347 -23.654  -2.876  1.00  0.00    -0.207 OA
BRANCH  26  29
ATOM     29  N   UNL     1      21.891 -24.499  -4.718  1.00  0.00    -0.225 NA
ATOM     30  H   UNL     1      22.322 -24.568  -5.639  1.00  0.00    +0.137 HD
ATOM     31  H   UNL     1      20.871 -24.493  -4.772  1.00  0.00    +0.137 HD
ENDBRANCH  26  29
ENDBRANCH  25  26
ENDBRANCH   5  20
TORSDOF 6
ENDMDL
