MODEL 1
REMARK VINA RESULT:    -8.512      0.000      0.000
REMARK INTER + INTRA:         -12.455
REMARK INTER:                 -11.249
REMARK INTRA:                  -1.206
REMARK UNBOUND:                -1.206
REMARK SMILES CC1(c2ccc(S(N)(=O)=O)cc2)NC(=O)N(CC(=O)c2ccccn2)C1=O
REMARK SMILES IDX 1 1 2 2 13 3 14 4 15 5 16 6 26 7 27 8 3 10 4 11 12 12 5 13
REMARK SMILES IDX 11 14 6 15 7 16 9 17 10 18 8 19 17 22 18 23 19 24 20 25
REMARK SMILES IDX 21 26 25 27 22 28 24 29 23 30
REMARK H PARENT 13 9 8 20 8 21
ROOT
ATOM      1  C   UNL     1      18.046 -23.879   3.922  1.00  0.00    +0.051 C 
ATOM      2  C   UNL     1      17.345 -22.962   2.912  1.00  0.00    +0.144 C 
ATOM      3  N   UNL     1      16.526 -23.772   2.030  1.00  0.00    -0.319 N 
ATOM      4  C   UNL     1      17.069 -23.890   0.773  1.00  0.00    +0.325 C 
ATOM      5  O   UNL     1      16.605 -24.598  -0.103  1.00  0.00    -0.248 OA
ATOM      6  N   UNL     1      18.163 -23.088   0.695  1.00  0.00    -0.254 N 
ATOM      7  C   UNL     1      18.408 -22.479   1.897  1.00  0.00    +0.261 C 
ATOM      8  O   UNL     1      19.330 -21.711   2.137  1.00  0.00    -0.271 OA
ATOM      9  H   UNL     1      15.739 -24.339   2.315  1.00  0.00    +0.166 HD
ENDROOT
BRANCH   2  10
ATOM     10  C   UNL     1      16.534 -21.805   3.494  1.00  0.00    -0.013 A 
ATOM     11  C   UNL     1      16.357 -20.591   2.805  1.00  0.00    +0.008 A 
ATOM     12  C   UNL     1      15.909 -21.943   4.752  1.00  0.00    +0.008 A 
ATOM     13  C   UNL     1      15.598 -19.552   3.354  1.00  0.00    +0.022 A 
ATOM     14  C   UNL     1      15.149 -20.910   5.307  1.00  0.00    +0.022 A 
ATOM     15  C   UNL     1      15.008 -19.713   4.606  1.00  0.00    +0.082 A 
BRANCH  15  16
ATOM     16  S   UNL     1      14.040 -18.396   5.292  1.00  0.00    +0.238 S 
ATOM     17  O   UNL     1      14.780 -17.796   6.377  1.00  0.00    -0.207 OA
ATOM     18  O   UNL     1      12.678 -18.854   5.436  1.00  0.00    -0.207 OA
BRANCH  16  19
ATOM     19  N   UNL     1      14.077 -17.268   4.041  1.00  0.00    -0.225 NA
ATOM     20  H   UNL     1      14.650 -16.474   4.332  1.00  0.00    +0.137 HD
ATOM     21  H   UNL     1      14.391 -17.661   3.153  1.00  0.00    +0.137 HD
ENDBRANCH  16  19
ENDBRANCH  15  16
ENDBRANCH   2  10
BRANCH   6  22
ATOM     22  C   UNL     1      19.032 -23.000  -0.458  1.00  0.00    +0.213 C 
BRANCH  22  23
ATOM     23  C   UNL     1      18.285 -22.297  -1.583  1.00  0.00    +0.201 C 
ATOM     24  O   UNL     1      18.302 -22.675  -2.755  1.00  0.00    -0.290 OA
BRANCH  23  25
ATOM     25  C   UNL     1      17.511 -21.086  -1.199  1.00  0.00    +0.108 A 
ATOM     26  C   UNL     1      18.180 -19.922  -0.834  1.00  0.00    +0.032 A 
ATOM     27  N   UNL     1      16.158 -21.196  -1.228  1.00  0.00    -0.253 NA
ATOM     28  C   UNL     1      17.422 -18.811  -0.480  1.00  0.00    +0.004 A 
ATOM     29  C   UNL     1      15.454 -20.098  -0.877  1.00  0.00    +0.112 A 
ATOM     30  C   UNL     1      16.034 -18.897  -0.500  1.00  0.00    +0.020 A 
ENDBRANCH  23  25
ENDBRANCH  22  23
ENDBRANCH   6  22
TORSDOF 6
ENDMDL
MODEL 2
REMARK VINA RESULT:    -7.716      3.351      7.351
REMARK INTER + INTRA:         -11.403
REMARK INTER:                 -10.689
REMARK INTRA:                  -0.714
REMARK UNBOUND:                -1.206
REMARK SMILES CC1(c2ccc(S(N)(=O)=O)cc2)NC(=O)N(CC(=O)c2ccccn2)C1=O
REMARK SMILES IDX 1 1 2 2 13 3 14 4 15 5 16 6 26 7 27 8 3 10 4 11 12 12 5 13
REMARK SMILES IDX 11 14 6 15 7 16 9 17 10 18 8 19 17 22 18 23 19 24 20 25
REMARK SMILES IDX 21 26 25 27 22 28 24 29 23 30
REMARK H PARENT 13 9 8 20 8 21
ROOT
ATOM      1  C   UNL     1      16.225 -23.542   0.543  1.00  0.00    +0.051 C 
ATOM      2  C   UNL     1      17.400 -22.563   0.656  1.00  0.00    +0.144 C 
ATOM      3  N   UNL     1      18.243 -22.966   1.766  1.00  0.00    -0.319 N 
ATOM      4  C   UNL     1      18.110 -22.135   2.853  1.00  0.00    +0.325 C 
ATOM      5  O   UNL     1      18.649 -22.332   3.928  1.00  0.00    -0.248 OA
ATOM      6  N   UNL     1      17.313 -21.091   2.506  1.00  0.00    -0.254 N 
ATOM      7  C   UNL     1      16.851 -21.234   1.225  1.00  0.00    +0.261 C 
ATOM      8  O   UNL     1      16.104 -20.458   0.642  1.00  0.00    -0.271 OA
ATOM      9  H   UNL     1      18.747 -23.839   1.834  1.00  0.00    +0.166 HD
ENDROOT
BRANCH   2  10
ATOM     10  C   UNL     1      18.231 -22.351  -0.607  1.00  0.00    -0.013 A 
ATOM     11  C   UNL     1      19.635 -22.458  -0.610  1.00  0.00    +0.008 A 
ATOM     12  C   UNL     1      17.593 -22.064  -1.833  1.00  0.00    +0.008 A 
ATOM     13  C   UNL     1      20.372 -22.273  -1.784  1.00  0.00    +0.022 A 
ATOM     14  C   UNL     1      18.322 -21.877  -3.011  1.00  0.00    +0.022 A 
ATOM     15  C   UNL     1      19.713 -21.973  -2.975  1.00  0.00    +0.082 A 
BRANCH  15  16
ATOM     16  S   UNL     1      20.653 -21.749  -4.461  1.00  0.00    +0.238 S 
ATOM     17  O   UNL     1      20.867 -23.041  -5.071  1.00  0.00    -0.207 OA
ATOM     18  O   UNL     1      21.730 -20.827  -4.189  1.00  0.00    -0.207 OA
BRANCH  16  19
ATOM     19  N   UNL     1      19.536 -20.964  -5.448  1.00  0.00    -0.225 NA
ATOM     20  H   UNL     1      18.905 -21.660  -5.848  1.00  0.00    +0.137 HD
ATOM     21  H   UNL     1      19.029 -20.219  -4.970  1.00  0.00    +0.137 HD
ENDBRANCH  16  19
ENDBRANCH  15  16
ENDBRANCH   2  10
BRANCH   6  22
ATOM     22  C   UNL     1      16.895 -20.045   3.414  1.00  0.00    +0.213 C 
BRANCH  22  23
ATOM     23  C   UNL     1      15.603 -20.474   4.096  1.00  0.00    +0.201 C 
ATOM     24  O   UNL     1      15.324 -21.645   4.357  1.00  0.00    -0.290 OA
BRANCH  23  25
ATOM     25  C   UNL     1      14.651 -19.383   4.439  1.00  0.00    +0.108 A 
ATOM     26  C   UNL     1      13.922 -19.443   5.622  1.00  0.00    +0.032 A 
ATOM     27  N   UNL     1      14.549 -18.365   3.545  1.00  0.00    -0.253 NA
ATOM     28  C   UNL     1      13.042 -18.405   5.906  1.00  0.00    +0.004 A 
ATOM     29  C   UNL     1      13.684 -17.374   3.854  1.00  0.00    +0.112 A 
ATOM     30  C   UNL     1      12.917 -17.350   5.008  1.00  0.00    +0.020 A 
ENDBRANCH  23  25
ENDBRANCH  22  23
ENDBRANCH   6  22
TORSDOF 6
ENDMDL
MODEL 3
REMARK VINA RESULT:    -7.630      1.689      4.181
REMARK INTER + INTRA:         -11.289
REMARK INTER:                 -10.029
REMARK INTRA:                  -1.260
REMARK UNBOUND:                -1.206
REMARK SMILES CC1(c2ccc(S(N)(=O)=O)cc2)NC(=O)N(CC(=O)c2ccccn2)C1=O
REMARK SMILES IDX 1 1 2 2 13 3 14 4 15 5 16 6 26 7 27 8 3 10 4 11 12 12 5 13
REMARK SMILES IDX 11 14 6 15 7 16 9 17 10 18 8 19 17 22 18 23 19 24 20 25
REMARK SMILES IDX 21 26 25 27 22 28 24 29 23 30
REMARK H PARENT 13 9 8 20 8 21
ROOT
ATOM      1  C   UNL     1      17.175 -19.260  -1.040  1.00  0.00    +0.051 C 
ATOM      2  C   UNL     1      17.235 -20.137   0.217  1.00  0.00    +0.144 C 
ATOM      3  N   UNL     1      18.623 -20.322   0.596  1.00  0.00    -0.319 N 
ATOM      4  C   UNL     1      19.080 -21.587   0.313  1.00  0.00    +0.325 C 
ATOM      5  O   UNL     1      20.237 -21.939   0.458  1.00  0.00    -0.248 OA
ATOM      6  N   UNL     1      18.035 -22.337  -0.125  1.00  0.00    -0.254 N 
ATOM      7  C   UNL     1      16.893 -21.586  -0.205  1.00  0.00    +0.261 C 
ATOM      8  O   UNL     1      15.797 -21.984  -0.577  1.00  0.00    -0.271 OA
ATOM      9  H   UNL     1      19.258 -19.587   0.876  1.00  0.00    +0.166 HD
ENDROOT
BRANCH   2  10
ATOM     10  C   UNL     1      16.404 -19.671   1.411  1.00  0.00    -0.013 A 
ATOM     11  C   UNL     1      15.504 -18.593   1.325  1.00  0.00    +0.008 A 
ATOM     12  C   UNL     1      16.504 -20.345   2.647  1.00  0.00    +0.008 A 
ATOM     13  C   UNL     1      14.744 -18.194   2.430  1.00  0.00    +0.022 A 
ATOM     14  C   UNL     1      15.748 -19.954   3.756  1.00  0.00    +0.022 A 
ATOM     15  C   UNL     1      14.878 -18.870   3.641  1.00  0.00    +0.082 A 
BRANCH  15  16
ATOM     16  S   UNL     1      13.905 -18.367   5.035  1.00  0.00    +0.238 S 
ATOM     17  O   UNL     1      13.334 -19.543   5.648  1.00  0.00    -0.207 OA
ATOM     18  O   UNL     1      13.111 -17.224   4.651  1.00  0.00    -0.207 OA
BRANCH  16  19
ATOM     19  N   UNL     1      15.096 -17.835   6.100  1.00  0.00    -0.225 NA
ATOM     20  H   UNL     1      14.647 -17.488   6.949  1.00  0.00    +0.137 HD
ATOM     21  H   UNL     1      15.801 -18.544   6.303  1.00  0.00    +0.137 HD
ENDBRANCH  16  19
ENDBRANCH  15  16
ENDBRANCH   2  10
BRANCH   6  22
ATOM     22  C   UNL     1      18.146 -23.706  -0.580  1.00  0.00    +0.213 C 
BRANCH  22  23
ATOM     23  C   UNL     1      17.634 -24.631   0.515  1.00  0.00    +0.201 C 
ATOM     24  O   UNL     1      16.757 -25.479   0.340  1.00  0.00    -0.290 OA
BRANCH  23  25
ATOM     25  C   UNL     1      18.250 -24.459   1.859  1.00  0.00    +0.108 A 
ATOM     26  C   UNL     1      17.521 -23.869   2.886  1.00  0.00    +0.032 A 
ATOM     27  N   UNL     1      19.526 -24.901   2.001  1.00  0.00    -0.253 NA
ATOM     28  C   UNL     1      18.133 -23.724   4.127  1.00  0.00    +0.004 A 
ATOM     29  C   UNL     1      20.089 -24.743   3.219  1.00  0.00    +0.112 A 
ATOM     30  C   UNL     1      19.440 -24.167   4.300  1.00  0.00    +0.020 A 
ENDBRANCH  23  25
ENDBRANCH  22  23
ENDBRANCH   6  22
TORSDOF 6
ENDMDL
MODEL 4
REMARK VINA RESULT:    -7.604      2.403      3.420
REMARK INTER + INTRA:         -11.255
REMARK INTER:                 -10.494
REMARK INTRA:                  -0.762
REMARK UNBOUND:                -1.206
REMARK SMILES CC1(c2ccc(S(N)(=O)=O)cc2)NC(=O)N(CC(=O)c2ccccn2)C1=O
REMARK SMILES IDX 1 1 2 2 13 3 14 4 15 5 16 6 26 7 27 8 3 10 4 11 12 12 5 13
REMARK SMILES IDX 11 14 6 15 7 16 9 17 10 18 8 19 17 22 18 23 19 24 20 25
REMARK SMILES IDX 21 26 25 27 22 28 24 29 23 30
REMARK H PARENT 13 9 8 20 8 21
ROOT
ATOM      1  C   UNL     1      17.928 -23.738   1.914  1.00  0.00    +0.051 C 
ATOM      2  C   UNL     1      17.365 -22.403   1.412  1.00  0.00    +0.144 C 
ATOM      3  N   UNL     1      16.491 -22.656   0.283  1.00  0.00    -0.319 N 
ATOM      4  C   UNL     1      17.057 -22.282  -0.912  1.00  0.00    +0.325 C 
ATOM      5  O   UNL     1      16.546 -22.486  -1.999  1.00  0.00    -0.248 OA
ATOM      6  N   UNL     1      18.235 -21.654  -0.657  1.00  0.00    -0.254 N 
ATOM      7  C   UNL     1      18.508 -21.655   0.685  1.00  0.00    +0.261 C 
ATOM      8  O   UNL     1      19.501 -21.174   1.214  1.00  0.00    -0.271 OA
ATOM      9  H   UNL     1      15.637 -23.196   0.311  1.00  0.00    +0.166 HD
ENDROOT
BRANCH   2  10
ATOM     10  C   UNL     1      16.670 -21.525   2.451  1.00  0.00    -0.013 A 
ATOM     11  C   UNL     1      16.185 -22.041   3.668  1.00  0.00    +0.008 A 
ATOM     12  C   UNL     1      16.518 -20.141   2.219  1.00  0.00    +0.008 A 
ATOM     13  C   UNL     1      15.564 -21.213   4.609  1.00  0.00    +0.022 A 
ATOM     14  C   UNL     1      15.899 -19.307   3.154  1.00  0.00    +0.022 A 
ATOM     15  C   UNL     1      15.415 -19.853   4.342  1.00  0.00    +0.082 A 
BRANCH  15  16
ATOM     16  S   UNL     1      14.635 -18.808   5.543  1.00  0.00    +0.238 S 
ATOM     17  O   UNL     1      15.624 -18.406   6.516  1.00  0.00    -0.207 OA
ATOM     18  O   UNL     1      13.371 -19.398   5.914  1.00  0.00    -0.207 OA
BRANCH  16  19
ATOM     19  N   UNL     1      14.314 -17.430   4.629  1.00  0.00    -0.225 NA
ATOM     20  H   UNL     1      13.318 -17.410   4.404  1.00  0.00    +0.137 HD
ATOM     21  H   UNL     1      14.622 -16.568   5.078  1.00  0.00    +0.137 HD
ENDBRANCH  16  19
ENDBRANCH  15  16
ENDBRANCH   2  10
BRANCH   6  22
ATOM     22  C   UNL     1      19.145 -21.178  -1.676  1.00  0.00    +0.213 C 
BRANCH  22  23
ATOM     23  C   UNL     1      19.879 -22.370  -2.275  1.00  0.00    +0.201 C 
ATOM     24  O   UNL     1      20.315 -23.310  -1.608  1.00  0.00    -0.290 OA
BRANCH  23  25
ATOM     25  C   UNL     1      20.063 -22.350  -3.751  1.00  0.00    +0.108 A 
ATOM     26  C   UNL     1      20.333 -23.532  -4.433  1.00  0.00    +0.032 A 
ATOM     27  N   UNL     1      19.953 -21.141  -4.359  1.00  0.00    -0.253 NA
ATOM     28  C   UNL     1      20.501 -23.472  -5.813  1.00  0.00    +0.004 A 
ATOM     29  C   UNL     1      20.122 -21.120  -5.699  1.00  0.00    +0.112 A 
ATOM     30  C   UNL     1      20.394 -22.246  -6.460  1.00  0.00    +0.020 A 
ENDBRANCH  23  25
ENDBRANCH  22  23
ENDBRANCH   6  22
TORSDOF 6
ENDMDL
MODEL 5
REMARK VINA RESULT:    -7.306      3.714      7.683
REMARK INTER + INTRA:         -10.862
REMARK INTER:                 -10.132
REMARK INTRA:                  -0.729
REMARK UNBOUND:                -1.206
REMARK SMILES CC1(c2ccc(S(N)(=O)=O)cc2)NC(=O)N(CC(=O)c2ccccn2)C1=O
REMARK SMILES IDX 1 1 2 2 13 3 14 4 15 5 16 6 26 7 27 8 3 10 4 11 12 12 5 13
REMARK SMILES IDX 11 14 6 15 7 16 9 17 10 18 8 19 17 22 18 23 19 24 20 25
REMARK SMILES IDX 21 26 25 27 22 28 24 29 23 30
REMARK H PARENT 13 9 8 20 8 21
ROOT
ATOM      1  C   UNL     1      15.758 -21.709  -1.407  1.00  0.00    +0.051 C 
ATOM      2  C   UNL     1      17.054 -21.711  -0.587  1.00  0.00    +0.144 C 
ATOM      3  N   UNL     1      16.871 -22.550   0.581  1.00  0.00    -0.319 N 
ATOM      4  C   UNL     1      16.742 -21.819   1.737  1.00  0.00    +0.325 C 
ATOM      5  O   UNL     1      16.486 -22.306   2.824  1.00  0.00    -0.248 OA
ATOM      6  N   UNL     1      16.962 -20.509   1.449  1.00  0.00    -0.254 N 
ATOM      7  C   UNL     1      17.172 -20.334   0.107  1.00  0.00    +0.261 C 
ATOM      8  O   UNL     1      17.385 -19.265  -0.451  1.00  0.00    -0.271 OA
ATOM      9  H   UNL     1      16.682 -23.543   0.567  1.00  0.00    +0.166 HD
ENDROOT
BRANCH   2  10
ATOM     10  C   UNL     1      18.330 -22.093  -1.335  1.00  0.00    -0.013 A 
ATOM     11  C   UNL     1      19.357 -22.845  -0.734  1.00  0.00    +0.008 A 
ATOM     12  C   UNL     1      18.500 -21.713  -2.684  1.00  0.00    +0.008 A 
ATOM     13  C   UNL     1      20.510 -23.194  -1.444  1.00  0.00    +0.022 A 
ATOM     14  C   UNL     1      19.649 -22.057  -3.401  1.00  0.00    +0.022 A 
ATOM     15  C   UNL     1      20.655 -22.789  -2.770  1.00  0.00    +0.082 A 
BRANCH  15  16
ATOM     16  S   UNL     1      22.114 -23.242  -3.668  1.00  0.00    +0.238 S 
ATOM     17  O   UNL     1      23.066 -23.811  -2.743  1.00  0.00    -0.207 OA
ATOM     18  O   UNL     1      22.451 -22.167  -4.570  1.00  0.00    -0.207 OA
BRANCH  16  19
ATOM     19  N   UNL     1      21.551 -24.534  -4.590  1.00  0.00    -0.225 NA
ATOM     20  H   UNL     1      20.593 -24.337  -4.882  1.00  0.00    +0.137 HD
ATOM     21  H   UNL     1      22.154 -24.757  -5.382  1.00  0.00    +0.137 HD
ENDBRANCH  16  19
ENDBRANCH  15  16
ENDBRANCH   2  10
BRANCH   6  22
ATOM     22  C   UNL     1      16.848 -19.431   2.406  1.00  0.00    +0.213 C 
BRANCH  22  23
ATOM     23  C   UNL     1      15.438 -18.860   2.337  1.00  0.00    +0.201 C 
ATOM     24  O   UNL     1      14.918 -18.447   1.299  1.00  0.00    -0.290 OA
BRANCH  23  25
ATOM     25  C   UNL     1      14.688 -18.810   3.621  1.00  0.00    +0.108 A 
ATOM     26  C   UNL     1      13.876 -17.718   3.909  1.00  0.00    +0.032 A 
ATOM     27  N   UNL     1      14.851 -19.867   4.458  1.00  0.00    -0.253 NA
ATOM     28  C   UNL     1      13.193 -17.708   5.121  1.00  0.00    +0.004 A 
ATOM     29  C   UNL     1      14.172 -19.823   5.626  1.00  0.00    +0.112 A 
ATOM     30  C   UNL     1      13.341 -18.777   5.997  1.00  0.00    +0.020 A 
ENDBRANCH  23  25
ENDBRANCH  22  23
ENDBRANCH   6  22
TORSDOF 6
ENDMDL
MODEL 6
REMARK VINA RESULT:    -7.282      3.279      6.989
REMARK INTER + INTRA:         -10.830
REMARK INTER:                 -10.013
REMARK INTRA:                  -0.817
REMARK UNBOUND:                -1.206
REMARK SMILES CC1(c2ccc(S(N)(=O)=O)cc2)NC(=O)N(CC(=O)c2ccccn2)C1=O
REMARK SMILES IDX 1 1 2 2 13 3 14 4 15 5 16 6 26 7 27 8 3 10 4 11 12 12 5 13
REMARK SMILES IDX 11 14 6 15 7 16 9 17 10 18 8 19 17 22 18 23 19 24 20 25
REMARK SMILES IDX 21 26 25 27 22 28 24 29 23 30
REMARK H PARENT 13 9 8 20 8 21
ROOT
ATOM      1  C   UNL     1      17.945 -25.168   2.145  1.00  0.00    +0.051 C 
ATOM      2  C   UNL     1      18.148 -23.661   1.945  1.00  0.00    +0.144 C 
ATOM      3  N   UNL     1      18.944 -23.145   3.042  1.00  0.00    -0.319 N 
ATOM      4  C   UNL     1      18.197 -22.408   3.930  1.00  0.00    +0.325 C 
ATOM      5  O   UNL     1      18.633 -21.956   4.974  1.00  0.00    -0.248 OA
ATOM      6  N   UNL     1      16.940 -22.273   3.432  1.00  0.00    -0.254 N 
ATOM      7  C   UNL     1      16.804 -22.960   2.255  1.00  0.00    +0.261 C 
ATOM      8  O   UNL     1      15.785 -23.033   1.581  1.00  0.00    -0.271 OA
ATOM      9  H   UNL     1      19.894 -23.414   3.256  1.00  0.00    +0.166 HD
ENDROOT
BRANCH   2  10
ATOM     10  C   UNL     1      18.730 -23.227   0.601  1.00  0.00    -0.013 A 
ATOM     11  C   UNL     1      18.657 -21.897   0.145  1.00  0.00    +0.008 A 
ATOM     12  C   UNL     1      19.393 -24.166  -0.219  1.00  0.00    +0.008 A 
ATOM     13  C   UNL     1      19.210 -21.522  -1.084  1.00  0.00    +0.022 A 
ATOM     14  C   UNL     1      19.949 -23.799  -1.448  1.00  0.00    +0.022 A 
ATOM     15  C   UNL     1      19.843 -22.477  -1.878  1.00  0.00    +0.082 A 
BRANCH  15  16
ATOM     16  S   UNL     1      20.551 -21.993  -3.429  1.00  0.00    +0.238 S 
ATOM     17  O   UNL     1      20.782 -23.178  -4.221  1.00  0.00    -0.207 OA
ATOM     18  O   UNL     1      21.578 -21.009  -3.179  1.00  0.00    -0.207 OA
BRANCH  16  19
ATOM     19  N   UNL     1      19.251 -21.208  -4.159  1.00  0.00    -0.225 NA
ATOM     20  H   UNL     1      19.486 -20.222  -4.276  1.00  0.00    +0.137 HD
ATOM     21  H   UNL     1      18.961 -21.639  -5.037  1.00  0.00    +0.137 HD
ENDBRANCH  16  19
ENDBRANCH  15  16
ENDBRANCH   2  10
BRANCH   6  22
ATOM     22  C   UNL     1      15.854 -21.613   4.122  1.00  0.00    +0.213 C 
BRANCH  22  23
ATOM     23  C   UNL     1      15.792 -20.161   3.667  1.00  0.00    +0.201 C 
ATOM     24  O   UNL     1      16.554 -19.673   2.832  1.00  0.00    -0.290 OA
BRANCH  23  25
ATOM     25  C   UNL     1      14.741 -19.321   4.303  1.00  0.00    +0.108 A 
ATOM     26  C   UNL     1      14.144 -19.734   5.489  1.00  0.00    +0.032 A 
ATOM     27  N   UNL     1      14.420 -18.166   3.663  1.00  0.00    -0.253 NA
ATOM     28  C   UNL     1      13.165 -18.922   6.051  1.00  0.00    +0.004 A 
ATOM     29  C   UNL     1      13.465 -17.402   4.238  1.00  0.00    +0.112 A 
ATOM     30  C   UNL     1      12.816 -17.735   5.417  1.00  0.00    +0.020 A 
ENDBRANCH  23  25
ENDBRANCH  22  23
ENDBRANCH   6  22
TORSDOF 6
ENDMDL
MODEL 7
REMARK VINA RESULT:    -7.231      2.721      5.210
REMARK INTER + INTRA:         -10.761
REMARK INTER:                  -9.848
REMARK INTRA:                  -0.913
REMARK UNBOUND:                -1.206
REMARK SMILES CC1(c2ccc(S(N)(=O)=O)cc2)NC(=O)N(CC(=O)c2ccccn2)C1=O
REMARK SMILES IDX 1 1 2 2 13 3 14 4 15 5 16 6 26 7 27 8 3 10 4 11 12 12 5 13
REMARK SMILES IDX 11 14 6 15 7 16 9 17 10 18 8 19 17 22 18 23 19 24 20 25
REMARK SMILES IDX 21 26 25 27 22 28 24 29 23 30
REMARK H PARENT 13 9 8 20 8 21
ROOT
ATOM      1  C   UNL     1      16.948 -21.016  -0.172  1.00  0.00    +0.051 C 
ATOM      2  C   UNL     1      17.372 -21.161   1.295  1.00  0.00    +0.144 C 
ATOM      3  N   UNL     1      18.767 -20.786   1.421  1.00  0.00    -0.319 N 
ATOM      4  C   UNL     1      19.587 -21.873   1.610  1.00  0.00    +0.325 C 
ATOM      5  O   UNL     1      20.803 -21.807   1.647  1.00  0.00    -0.248 OA
ATOM      6  N   UNL     1      18.813 -22.980   1.756  1.00  0.00    -0.254 N 
ATOM      7  C   UNL     1      17.488 -22.672   1.605  1.00  0.00    +0.261 C 
ATOM      8  O   UNL     1      16.556 -23.464   1.671  1.00  0.00    -0.271 OA
ATOM      9  H   UNL     1      19.149 -19.870   1.227  1.00  0.00    +0.166 HD
ENDROOT
BRANCH   2  10
ATOM     10  C   UNL     1      16.517 -20.424   2.325  1.00  0.00    -0.013 A 
ATOM     11  C   UNL     1      16.449 -20.827   3.671  1.00  0.00    +0.008 A 
ATOM     12  C   UNL     1      15.782 -19.280   1.944  1.00  0.00    +0.008 A 
ATOM     13  C   UNL     1      15.669 -20.127   4.598  1.00  0.00    +0.022 A 
ATOM     14  C   UNL     1      15.001 -18.575   2.864  1.00  0.00    +0.022 A 
ATOM     15  C   UNL     1      14.941 -19.012   4.187  1.00  0.00    +0.082 A 
BRANCH  15  16
ATOM     16  S   UNL     1      13.963 -18.123   5.368  1.00  0.00    +0.238 S 
ATOM     17  O   UNL     1      14.758 -17.903   6.553  1.00  0.00    -0.207 OA
ATOM     18  O   UNL     1      12.646 -18.714   5.411  1.00  0.00    -0.207 OA
BRANCH  16  19
ATOM     19  N   UNL     1      13.830 -16.617   4.626  1.00  0.00    -0.225 NA
ATOM     20  H   UNL     1      12.840 -16.388   4.522  1.00  0.00    +0.137 HD
ATOM     21  H   UNL     1      14.343 -15.881   5.113  1.00  0.00    +0.137 HD
ENDBRANCH  16  19
ENDBRANCH  15  16
ENDBRANCH   2  10
BRANCH   6  22
ATOM     22  C   UNL     1      19.329 -24.323   1.908  1.00  0.00    +0.213 C 
BRANCH  22  23
ATOM     23  C   UNL     1      19.751 -24.526   3.357  1.00  0.00    +0.201 C 
ATOM     24  O   UNL     1      18.966 -24.521   4.305  1.00  0.00    -0.290 OA
BRANCH  23  25
ATOM     25  C   UNL     1      21.207 -24.728   3.591  1.00  0.00    +0.108 A 
ATOM     26  C   UNL     1      21.840 -25.859   3.088  1.00  0.00    +0.032 A 
ATOM     27  N   UNL     1      21.845 -23.766   4.306  1.00  0.00    -0.253 NA
ATOM     28  C   UNL     1      23.201 -26.014   3.329  1.00  0.00    +0.004 A 
ATOM     29  C   UNL     1      23.166 -23.949   4.522  1.00  0.00    +0.112 A 
ATOM     30  C   UNL     1      23.879 -25.043   4.059  1.00  0.00    +0.020 A 
ENDBRANCH  23  25
ENDBRANCH  22  23
ENDBRANCH   6  22
TORSDOF 6
ENDMDL
MODEL 8
REMARK VINA RESULT:    -7.230      2.282      4.691
REMARK INTER + INTRA:         -10.760
REMARK INTER:                  -9.841
REMARK INTRA:                  -0.920
REMARK UNBOUND:                -1.206
REMARK SMILES CC1(c2ccc(S(N)(=O)=O)cc2)NC(=O)N(CC(=O)c2ccccn2)C1=O
REMARK SMILES IDX 1 1 2 2 13 3 14 4 15 5 16 6 26 7 27 8 3 10 4 11 12 12 5 13
REMARK SMILES IDX 11 14 6 15 7 16 9 17 10 18 8 19 17 22 18 23 19 24 20 25
REMARK SMILES IDX 21 26 25 27 22 28 24 29 23 30
REMARK H PARENT 13 9 8 20 8 21
ROOT
ATOM      1  C   UNL     1      17.352 -18.958  -0.871  1.00  0.00    +0.051 C 
ATOM      2  C   UNL     1      17.177 -19.900   0.326  1.00  0.00    +0.144 C 
ATOM      3  N   UNL     1      18.486 -20.260   0.836  1.00  0.00    -0.319 N 
ATOM      4  C   UNL     1      18.835 -21.552   0.522  1.00  0.00    +0.325 C 
ATOM      5  O   UNL     1      19.924 -22.040   0.765  1.00  0.00    -0.248 OA
ATOM      6  N   UNL     1      17.771 -22.156  -0.070  1.00  0.00    -0.254 N 
ATOM      7  C   UNL     1      16.732 -21.277  -0.221  1.00  0.00    +0.261 C 
ATOM      8  O   UNL     1      15.648 -21.530  -0.732  1.00  0.00    -0.271 OA
ATOM      9  H   UNL     1      19.161 -19.617   1.227  1.00  0.00    +0.166 HD
ENDROOT
BRANCH   2  10
ATOM     10  C   UNL     1      16.273 -19.406   1.453  1.00  0.00    -0.013 A 
ATOM     11  C   UNL     1      15.438 -18.283   1.309  1.00  0.00    +0.008 A 
ATOM     12  C   UNL     1      16.234 -20.099   2.682  1.00  0.00    +0.008 A 
ATOM     13  C   UNL     1      14.608 -17.859   2.353  1.00  0.00    +0.022 A 
ATOM     14  C   UNL     1      15.407 -19.683   3.730  1.00  0.00    +0.022 A 
ATOM     15  C   UNL     1      14.606 -18.555   3.561  1.00  0.00    +0.082 A 
BRANCH  15  16
ATOM     16  S   UNL     1      13.545 -18.018   4.875  1.00  0.00    +0.238 S 
ATOM     17  O   UNL     1      13.203 -19.162   5.688  1.00  0.00    -0.207 OA
ATOM     18  O   UNL     1      12.551 -17.126   4.328  1.00  0.00    -0.207 OA
BRANCH  16  19
ATOM     19  N   UNL     1      14.606 -17.101   5.808  1.00  0.00    -0.225 NA
ATOM     20  H   UNL     1      14.492 -17.364   6.788  1.00  0.00    +0.137 HD
ATOM     21  H   UNL     1      15.576 -17.174   5.503  1.00  0.00    +0.137 HD
ENDBRANCH  16  19
ENDBRANCH  15  16
ENDBRANCH   2  10
BRANCH   6  22
ATOM     22  C   UNL     1      17.786 -23.503  -0.598  1.00  0.00    +0.213 C 
BRANCH  22  23
ATOM     23  C   UNL     1      17.380 -24.468   0.507  1.00  0.00    +0.201 C 
ATOM     24  O   UNL     1      16.544 -24.205   1.372  1.00  0.00    -0.290 OA
BRANCH  23  25
ATOM     25  C   UNL     1      18.067 -25.788   0.507  1.00  0.00    +0.108 A 
ATOM     26  C   UNL     1      17.358 -26.940   0.832  1.00  0.00    +0.032 A 
ATOM     27  N   UNL     1      19.386 -25.785   0.181  1.00  0.00    -0.253 NA
ATOM     28  C   UNL     1      18.036 -28.155   0.822  1.00  0.00    +0.004 A 
ATOM     29  C   UNL     1      20.012 -26.982   0.183  1.00  0.00    +0.112 A 
ATOM     30  C   UNL     1      19.387 -28.180   0.492  1.00  0.00    +0.020 A 
ENDBRANCH  23  25
ENDBRANCH  22  23
ENDBRANCH   6  22
TORSDOF 6
ENDMDL
MODEL 9
REMARK VINA RESULT:    -7.197      2.758      4.720
REMARK INTER + INTRA:         -10.717
REMARK INTER:                  -9.951
REMARK INTRA:                  -0.765
REMARK UNBOUND:                -1.206
REMARK SMILES CC1(c2ccc(S(N)(=O)=O)cc2)NC(=O)N(CC(=O)c2ccccn2)C1=O
REMARK SMILES IDX 1 1 2 2 13 3 14 4 15 5 16 6 26 7 27 8 3 10 4 11 12 12 5 13
REMARK SMILES IDX 11 14 6 15 7 16 9 17 10 18 8 19 17 22 18 23 19 24 20 25
REMARK SMILES IDX 21 26 25 27 22 28 24 29 23 30
REMARK H PARENT 13 9 8 20 8 21
ROOT
ATOM      1  C   UNL     1      18.832 -20.799   1.700  1.00  0.00    +0.051 C 
ATOM      2  C   UNL     1      17.530 -21.386   2.260  1.00  0.00    +0.144 C 
ATOM      3  N   UNL     1      17.854 -22.331   3.311  1.00  0.00    -0.319 N 
ATOM      4  C   UNL     1      17.672 -23.636   2.917  1.00  0.00    +0.325 C 
ATOM      5  O   UNL     1      17.970 -24.599   3.600  1.00  0.00    -0.248 OA
ATOM      6  N   UNL     1      17.107 -23.640   1.681  1.00  0.00    -0.254 N 
ATOM      7  C   UNL     1      16.963 -22.364   1.205  1.00  0.00    +0.261 C 
ATOM      8  O   UNL     1      16.496 -22.054   0.117  1.00  0.00    -0.271 OA
ATOM      9  H   UNL     1      18.322 -22.108   4.178  1.00  0.00    +0.166 HD
ENDROOT
BRANCH   2  10
ATOM     10  C   UNL     1      16.483 -20.381   2.738  1.00  0.00    -0.013 A 
ATOM     11  C   UNL     1      16.065 -19.297   1.945  1.00  0.00    +0.008 A 
ATOM     12  C   UNL     1      15.879 -20.540   4.005  1.00  0.00    +0.008 A 
ATOM     13  C   UNL     1      15.094 -18.399   2.401  1.00  0.00    +0.022 A 
ATOM     14  C   UNL     1      14.908 -19.647   4.467  1.00  0.00    +0.022 A 
ATOM     15  C   UNL     1      14.529 -18.573   3.663  1.00  0.00    +0.082 A 
BRANCH  15  16
ATOM     16  S   UNL     1      13.292 -17.437   4.230  1.00  0.00    +0.238 S 
ATOM     17  O   UNL     1      12.430 -18.123   5.164  1.00  0.00    -0.207 OA
ATOM     18  O   UNL     1      12.785 -16.705   3.094  1.00  0.00    -0.207 OA
BRANCH  16  19
ATOM     19  N   UNL     1      14.213 -16.377   5.160  1.00  0.00    -0.225 NA
ATOM     20  H   UNL     1      13.590 -15.864   5.787  1.00  0.00    +0.137 HD
ATOM     21  H   UNL     1      14.970 -16.837   5.666  1.00  0.00    +0.137 HD
ENDBRANCH  16  19
ENDBRANCH  15  16
ENDBRANCH   2  10
BRANCH   6  22
ATOM     22  C   UNL     1      16.828 -24.835   0.915  1.00  0.00    +0.213 C 
BRANCH  22  23
ATOM     23  C   UNL     1      18.147 -25.459   0.480  1.00  0.00    +0.201 C 
ATOM     24  O   UNL     1      19.094 -24.813   0.032  1.00  0.00    -0.290 OA
BRANCH  23  25
ATOM     25  C   UNL     1      18.246 -26.938   0.615  1.00  0.00    +0.108 A 
ATOM     26  C   UNL     1      19.202 -27.639  -0.113  1.00  0.00    +0.032 A 
ATOM     27  N   UNL     1      17.368 -27.529   1.466  1.00  0.00    -0.253 NA
ATOM     28  C   UNL     1      19.263 -29.020   0.039  1.00  0.00    +0.004 A 
ATOM     29  C   UNL     1      17.456 -28.872   1.588  1.00  0.00    +0.112 A 
ATOM     30  C   UNL     1      18.375 -29.651   0.904  1.00  0.00    +0.020 A 
ENDBRANCH  23  25
ENDBRANCH  22  23
ENDBRANCH   6  22
TORSDOF 6
ENDMDL
