MODEL 1
REMARK VINA RESULT:    -8.296      0.000      0.000
REMARK INTER + INTRA:         -11.135
REMARK INTER:                 -10.236
REMARK INTRA:                  -0.899
REMARK UNBOUND:                -0.899
REMARK SMILES O=C(Nc1sccc1C(=O)Nc1ncccn1)c1nc2cnccc2s1
REMARK SMILES IDX 4 1 5 2 6 3 7 4 8 5 3 6 1 7 2 8 18 10 19 11 26 12 20 13
REMARK SMILES IDX 25 14 21 15 24 16 22 17 23 18 9 19 10 20 11 21 12 23 13 24
REMARK SMILES IDX 17 25 14 26 16 27 15 28
REMARK H PARENT 3 9 11 22
ROOT
ATOM      1  C   UNL     1      17.381 -20.772  -0.316  1.00  0.00    +0.108 A 
ATOM      2  S   UNL     1      16.806 -20.711  -1.913  1.00  0.00    -0.126 S 
ATOM      3  C   UNL     1      18.161 -21.543  -2.513  1.00  0.00    +0.068 A 
ATOM      4  C   UNL     1      19.047 -21.867  -1.511  1.00  0.00    +0.028 A 
ATOM      5  C   UNL     1      18.608 -21.423  -0.209  1.00  0.00    +0.075 A 
ENDROOT
BRANCH   1   6
ATOM      6  N   UNL     1      16.661 -20.215   0.729  1.00  0.00    -0.311 N 
ATOM      7  O   UNL     1      16.527 -17.962   0.154  1.00  0.00    -0.266 OA
ATOM      8  C   UNL     1      16.281 -18.895   0.914  1.00  0.00    +0.285 C 
ATOM      9  H   UNL     1      16.371 -20.868   1.464  1.00  0.00    +0.171 HD
BRANCH   8  10
ATOM     10  C   UNL     1      15.526 -18.726   2.159  1.00  0.00    +0.183 A 
ATOM     11  N   UNL     1      14.613 -17.786   2.316  1.00  0.00    -0.229 NA
ATOM     12  S   UNL     1      15.786 -19.751   3.505  1.00  0.00    -0.109 S 
ATOM     13  C   UNL     1      14.068 -17.870   3.589  1.00  0.00    +0.100 A 
ATOM     14  C   UNL     1      14.587 -18.889   4.392  1.00  0.00    +0.058 A 
ATOM     15  C   UNL     1      13.072 -17.046   4.130  1.00  0.00    +0.140 A 
ATOM     16  C   UNL     1      14.138 -19.097   5.699  1.00  0.00    +0.041 A 
ATOM     17  N   UNL     1      12.622 -17.232   5.398  1.00  0.00    -0.262 NA
ATOM     18  C   UNL     1      13.152 -18.230   6.137  1.00  0.00    +0.112 A 
ENDBRANCH   8  10
ENDBRANCH   1   6
BRANCH   5  19
ATOM     19  C   UNL     1      19.296 -21.593   1.089  1.00  0.00    +0.261 C 
ATOM     20  O   UNL     1      19.087 -20.797   1.999  1.00  0.00    -0.269 OA
ATOM     21  N   UNL     1      20.137 -22.672   1.148  1.00  0.00    -0.290 N 
ATOM     22  H   UNL     1      20.266 -23.287   0.367  1.00  0.00    +0.173 HD
BRANCH  21  23
ATOM     23  C   UNL     1      20.897 -23.053   2.241  1.00  0.00    +0.229 A 
ATOM     24  N   UNL     1      22.190 -22.703   2.145  1.00  0.00    -0.221 NA
ATOM     25  N   UNL     1      20.371 -23.707   3.279  1.00  0.00    -0.221 NA
ATOM     26  C   UNL     1      22.987 -23.046   3.178  1.00  0.00    +0.117 A 
ATOM     27  C   UNL     1      21.203 -24.028   4.285  1.00  0.00    +0.117 A 
ATOM     28  C   UNL     1      22.540 -23.718   4.289  1.00  0.00    +0.040 A 
ENDBRANCH  21  23
ENDBRANCH   5  19
TORSDOF 4
ENDMDL
MODEL 2
REMARK VINA RESULT:    -7.829      2.637      7.241
REMARK INTER + INTRA:         -10.558
REMARK INTER:                 -10.620
REMARK INTRA:                   0.062
REMARK UNBOUND:                -0.899
REMARK SMILES O=C(Nc1sccc1C(=O)Nc1ncccn1)c1nc2cnccc2s1
REMARK SMILES IDX 4 1 5 2 6 3 7 4 8 5 3 6 1 7 2 8 18 10 19 11 26 12 20 13
REMARK SMILES IDX 25 14 21 15 24 16 22 17 23 18 9 19 10 20 11 21 12 23 13 24
REMARK SMILES IDX 17 25 14 26 16 27 15 28
REMARK H PARENT 3 9 11 22
ROOT
ATOM      1  C   UNL     1      14.261 -18.632   4.149  1.00  0.00    +0.108 A 
ATOM      2  S   UNL     1      13.266 -18.430   5.510  1.00  0.00    -0.126 S 
ATOM      3  C   UNL     1      12.535 -17.038   4.863  1.00  0.00    +0.068 A 
ATOM      4  C   UNL     1      13.040 -16.726   3.621  1.00  0.00    +0.028 A 
ATOM      5  C   UNL     1      14.057 -17.651   3.180  1.00  0.00    +0.075 A 
ENDROOT
BRANCH   1   6
ATOM      6  N   UNL     1      15.161 -19.683   4.066  1.00  0.00    -0.311 N 
ATOM      7  O   UNL     1      16.350 -19.535   6.063  1.00  0.00    -0.266 OA
ATOM      8  C   UNL     1      16.125 -20.074   4.983  1.00  0.00    +0.285 C 
ATOM      9  H   UNL     1      15.107 -20.246   3.211  1.00  0.00    +0.171 HD
BRANCH   8  10
ATOM     10  C   UNL     1      16.871 -21.242   4.507  1.00  0.00    +0.183 A 
ATOM     11  N   UNL     1      17.977 -21.666   5.091  1.00  0.00    -0.229 NA
ATOM     12  S   UNL     1      16.350 -22.139   3.146  1.00  0.00    -0.109 S 
ATOM     13  C   UNL     1      18.460 -22.783   4.425  1.00  0.00    +0.100 A 
ATOM     14  C   UNL     1      17.699 -23.195   3.327  1.00  0.00    +0.058 A 
ATOM     15  C   UNL     1      19.610 -23.517   4.744  1.00  0.00    +0.140 A 
ATOM     16  C   UNL     1      18.060 -24.304   2.557  1.00  0.00    +0.041 A 
ATOM     17  N   UNL     1      19.977 -24.598   4.008  1.00  0.00    -0.262 NA
ATOM     18  C   UNL     1      19.212 -24.959   2.956  1.00  0.00    +0.112 A 
ENDBRANCH   8  10
ENDBRANCH   1   6
BRANCH   5  19
ATOM     19  C   UNL     1      14.815 -17.631   1.911  1.00  0.00    +0.261 C 
ATOM     20  O   UNL     1      14.948 -16.577   1.296  1.00  0.00    -0.269 OA
ATOM     21  N   UNL     1      15.317 -18.847   1.531  1.00  0.00    -0.290 N 
ATOM     22  H   UNL     1      15.173 -19.675   2.079  1.00  0.00    +0.173 HD
BRANCH  21  23
ATOM     23  C   UNL     1      16.059 -19.102   0.390  1.00  0.00    +0.229 A 
ATOM     24  N   UNL     1      15.752 -20.267  -0.202  1.00  0.00    -0.221 NA
ATOM     25  N   UNL     1      16.988 -18.253  -0.058  1.00  0.00    -0.221 NA
ATOM     26  C   UNL     1      16.440 -20.576  -1.320  1.00  0.00    +0.117 A 
ATOM     27  C   UNL     1      17.648 -18.602  -1.175  1.00  0.00    +0.117 A 
ATOM     28  C   UNL     1      17.412 -19.769  -1.858  1.00  0.00    +0.040 A 
ENDBRANCH  21  23
ENDBRANCH   5  19
TORSDOF 4
ENDMDL
MODEL 3
REMARK VINA RESULT:    -7.790      0.940      1.263
REMARK INTER + INTRA:         -10.510
REMARK INTER:                  -9.554
REMARK INTRA:                  -0.956
REMARK UNBOUND:                -0.899
REMARK SMILES O=C(Nc1sccc1C(=O)Nc1ncccn1)c1nc2cnccc2s1
REMARK SMILES IDX 4 1 5 2 6 3 7 4 8 5 3 6 1 7 2 8 18 10 19 11 26 12 20 13
REMARK SMILES IDX 25 14 21 15 24 16 22 17 23 18 9 19 10 20 11 21 12 23 13 24
REMARK SMILES IDX 17 25 14 26 16 27 15 28
REMARK H PARENT 3 9 11 22
ROOT
ATOM      1  C   UNL     1      17.010 -20.832  -0.460  1.00  0.00    +0.108 A 
ATOM      2  S   UNL     1      16.421 -20.832  -2.052  1.00  0.00    -0.126 S 
ATOM      3  C   UNL     1      17.723 -21.769  -2.615  1.00  0.00    +0.068 A 
ATOM      4  C   UNL     1      18.602 -22.082  -1.603  1.00  0.00    +0.028 A 
ATOM      5  C   UNL     1      18.202 -21.542  -0.325  1.00  0.00    +0.075 A 
ENDROOT
BRANCH   1   6
ATOM      6  N   UNL     1      16.333 -20.178   0.558  1.00  0.00    -0.311 N 
ATOM      7  O   UNL     1      16.646 -17.926   0.056  1.00  0.00    -0.266 OA
ATOM      8  C   UNL     1      16.185 -18.816   0.766  1.00  0.00    +0.285 C 
ATOM      9  H   UNL     1      15.881 -20.785   1.250  1.00  0.00    +0.171 HD
BRANCH   8  10
ATOM     10  C   UNL     1      15.390 -18.542   1.966  1.00  0.00    +0.183 A 
ATOM     11  N   UNL     1      15.473 -19.281   3.057  1.00  0.00    -0.229 NA
ATOM     12  S   UNL     1      14.292 -17.232   2.029  1.00  0.00    -0.109 S 
ATOM     13  C   UNL     1      14.609 -18.786   4.024  1.00  0.00    +0.100 A 
ATOM     14  C   UNL     1      13.873 -17.661   3.644  1.00  0.00    +0.058 A 
ATOM     15  C   UNL     1      14.413 -19.299   5.314  1.00  0.00    +0.140 A 
ATOM     16  C   UNL     1      12.962 -17.051   4.511  1.00  0.00    +0.041 A 
ATOM     17  N   UNL     1      13.533 -18.720   6.170  1.00  0.00    -0.262 NA
ATOM     18  C   UNL     1      12.844 -17.635   5.760  1.00  0.00    +0.112 A 
ENDBRANCH   8  10
ENDBRANCH   1   6
BRANCH   5  19
ATOM     19  C   UNL     1      18.895 -21.674   0.974  1.00  0.00    +0.261 C 
ATOM     20  O   UNL     1      18.767 -20.799   1.826  1.00  0.00    -0.269 OA
ATOM     21  N   UNL     1      19.645 -22.812   1.103  1.00  0.00    -0.290 N 
ATOM     22  H   UNL     1      19.710 -23.490   0.368  1.00  0.00    +0.173 HD
BRANCH  21  23
ATOM     23  C   UNL     1      20.389 -23.175   2.213  1.00  0.00    +0.229 A 
ATOM     24  N   UNL     1      21.714 -23.020   2.047  1.00  0.00    -0.221 NA
ATOM     25  N   UNL     1      19.821 -23.633   3.331  1.00  0.00    -0.221 NA
ATOM     26  C   UNL     1      22.496 -23.357   3.092  1.00  0.00    +0.117 A 
ATOM     27  C   UNL     1      20.641 -23.956   4.347  1.00  0.00    +0.117 A 
ATOM     28  C   UNL     1      22.007 -23.837   4.282  1.00  0.00    +0.040 A 
ENDBRANCH  21  23
ENDBRANCH   5  19
TORSDOF 4
ENDMDL
MODEL 4
REMARK VINA RESULT:    -6.918      3.797      7.586
REMARK INTER + INTRA:          -9.435
REMARK INTER:                  -8.457
REMARK INTRA:                  -0.978
REMARK UNBOUND:                -0.899
REMARK SMILES O=C(Nc1sccc1C(=O)Nc1ncccn1)c1nc2cnccc2s1
REMARK SMILES IDX 4 1 5 2 6 3 7 4 8 5 3 6 1 7 2 8 18 10 19 11 26 12 20 13
REMARK SMILES IDX 25 14 21 15 24 16 22 17 23 18 9 19 10 20 11 21 12 23 13 24
REMARK SMILES IDX 17 25 14 26 16 27 15 28
REMARK H PARENT 3 9 11 22
ROOT
ATOM      1  C   UNL     1      17.756 -21.440  -0.496  1.00  0.00    +0.108 A 
ATOM      2  S   UNL     1      17.630 -20.831  -2.075  1.00  0.00    -0.126 S 
ATOM      3  C   UNL     1      17.320 -19.253  -1.524  1.00  0.00    +0.068 A 
ATOM      4  C   UNL     1      17.311 -19.185  -0.149  1.00  0.00    +0.028 A 
ATOM      5  C   UNL     1      17.567 -20.461   0.478  1.00  0.00    +0.075 A 
ENDROOT
BRANCH   1   6
ATOM      6  N   UNL     1      18.022 -22.780  -0.260  1.00  0.00    -0.311 N 
ATOM      7  O   UNL     1      15.992 -23.604   0.530  1.00  0.00    -0.266 OA
ATOM      8  C   UNL     1      17.171 -23.762   0.220  1.00  0.00    +0.285 C 
ATOM      9  H   UNL     1      18.978 -23.085  -0.471  1.00  0.00    +0.171 HD
BRANCH   8  10
ATOM     10  C   UNL     1      17.852 -25.056   0.323  1.00  0.00    +0.183 A 
ATOM     11  N   UNL     1      17.207 -26.182   0.566  1.00  0.00    -0.229 NA
ATOM     12  S   UNL     1      19.547 -25.188   0.132  1.00  0.00    -0.109 S 
ATOM     13  C   UNL     1      18.107 -27.237   0.607  1.00  0.00    +0.100 A 
ATOM     14  C   UNL     1      19.443 -26.888   0.391  1.00  0.00    +0.058 A 
ATOM     15  C   UNL     1      17.806 -28.586   0.840  1.00  0.00    +0.140 A 
ATOM     16  C   UNL     1      20.463 -27.843   0.403  1.00  0.00    +0.041 A 
ATOM     17  N   UNL     1      18.784 -29.528   0.855  1.00  0.00    -0.262 NA
ATOM     18  C   UNL     1      20.060 -29.145   0.641  1.00  0.00    +0.112 A 
ENDBRANCH   8  10
ENDBRANCH   1   6
BRANCH   5  19
ATOM     19  C   UNL     1      17.633 -20.766   1.922  1.00  0.00    +0.261 C 
ATOM     20  O   UNL     1      18.669 -21.215   2.404  1.00  0.00    -0.269 OA
ATOM     21  N   UNL     1      16.478 -20.506   2.610  1.00  0.00    -0.290 N 
ATOM     22  H   UNL     1      15.663 -20.138   2.158  1.00  0.00    +0.173 HD
BRANCH  21  23
ATOM     23  C   UNL     1      16.276 -20.702   3.966  1.00  0.00    +0.229 A 
ATOM     24  N   UNL     1      16.272 -19.564   4.680  1.00  0.00    -0.221 NA
ATOM     25  N   UNL     1      16.104 -21.918   4.490  1.00  0.00    -0.221 NA
ATOM     26  C   UNL     1      16.079 -19.686   6.009  1.00  0.00    +0.117 A 
ATOM     27  C   UNL     1      15.915 -21.991   5.819  1.00  0.00    +0.117 A 
ATOM     28  C   UNL     1      15.894 -20.891   6.640  1.00  0.00    +0.040 A 
ENDBRANCH  21  23
ENDBRANCH   5  19
TORSDOF 4
ENDMDL
MODEL 5
REMARK VINA RESULT:    -6.884      5.545      9.440
REMARK INTER + INTRA:          -9.392
REMARK INTER:                  -8.436
REMARK INTRA:                  -0.956
REMARK UNBOUND:                -0.899
REMARK SMILES O=C(Nc1sccc1C(=O)Nc1ncccn1)c1nc2cnccc2s1
REMARK SMILES IDX 4 1 5 2 6 3 7 4 8 5 3 6 1 7 2 8 18 10 19 11 26 12 20 13
REMARK SMILES IDX 25 14 21 15 24 16 22 17 23 18 9 19 10 20 11 21 12 23 13 24
REMARK SMILES IDX 17 25 14 26 16 27 15 28
REMARK H PARENT 3 9 11 22
ROOT
ATOM      1  C   UNL     1      22.091 -21.443  -4.955  1.00  0.00    +0.108 A 
ATOM      2  S   UNL     1      22.807 -21.281  -6.486  1.00  0.00    -0.126 S 
ATOM      3  C   UNL     1      21.299 -21.185  -7.265  1.00  0.00    +0.068 A 
ATOM      4  C   UNL     1      20.256 -21.276  -6.372  1.00  0.00    +0.028 A 
ATOM      5  C   UNL     1      20.698 -21.427  -5.005  1.00  0.00    +0.075 A 
ENDROOT
BRANCH   1   6
ATOM      6  N   UNL     1      22.862 -21.573  -3.811  1.00  0.00    -0.311 N 
ATOM      7  O   UNL     1      23.732 -23.726  -3.987  1.00  0.00    -0.266 OA
ATOM      8  C   UNL     1      23.617 -22.658  -3.392  1.00  0.00    +0.285 C 
ATOM      9  H   UNL     1      22.876 -20.756  -3.192  1.00  0.00    +0.171 HD
BRANCH   8  10
ATOM     10  C   UNL     1      24.285 -22.383  -2.116  1.00  0.00    +0.183 A 
ATOM     11  N   UNL     1      25.017 -21.303  -1.915  1.00  0.00    -0.229 NA
ATOM     12  S   UNL     1      24.156 -23.459  -0.792  1.00  0.00    -0.109 S 
ATOM     13  C   UNL     1      25.520 -21.312  -0.622  1.00  0.00    +0.100 A 
ATOM     14  C   UNL     1      25.155 -22.419   0.149  1.00  0.00    +0.058 A 
ATOM     15  C   UNL     1      26.339 -20.338  -0.035  1.00  0.00    +0.140 A 
ATOM     16  C   UNL     1      25.586 -22.568   1.470  1.00  0.00    +0.041 A 
ATOM     17  N   UNL     1      26.767 -20.465   1.247  1.00  0.00    -0.262 NA
ATOM     18  C   UNL     1      26.390 -21.551   1.955  1.00  0.00    +0.112 A 
ENDBRANCH   8  10
ENDBRANCH   1   6
BRANCH   5  19
ATOM     19  C   UNL     1      19.867 -21.553  -3.790  1.00  0.00    +0.261 C 
ATOM     20  O   UNL     1      20.225 -22.296  -2.880  1.00  0.00    -0.269 OA
ATOM     21  N   UNL     1      18.728 -20.794  -3.800  1.00  0.00    -0.290 N 
ATOM     22  H   UNL     1      18.490 -20.206  -4.577  1.00  0.00    +0.173 HD
BRANCH  21  23
ATOM     23  C   UNL     1      17.782 -20.731  -2.791  1.00  0.00    +0.229 A 
ATOM     24  N   UNL     1      17.866 -19.617  -2.045  1.00  0.00    -0.221 NA
ATOM     25  N   UNL     1      16.882 -21.698  -2.598  1.00  0.00    -0.221 NA
ATOM     26  C   UNL     1      16.972 -19.493  -1.043  1.00  0.00    +0.117 A 
ATOM     27  C   UNL     1      16.011 -21.531  -1.588  1.00  0.00    +0.117 A 
ATOM     28  C   UNL     1      16.010 -20.433  -0.765  1.00  0.00    +0.040 A 
ENDBRANCH  21  23
ENDBRANCH   5  19
TORSDOF 4
ENDMDL
MODEL 6
REMARK VINA RESULT:    -6.850      2.328      7.166
REMARK INTER + INTRA:          -9.350
REMARK INTER:                  -8.281
REMARK INTRA:                  -1.069
REMARK UNBOUND:                -0.899
REMARK SMILES O=C(Nc1sccc1C(=O)Nc1ncccn1)c1nc2cnccc2s1
REMARK SMILES IDX 4 1 5 2 6 3 7 4 8 5 3 6 1 7 2 8 18 10 19 11 26 12 20 13
REMARK SMILES IDX 25 14 21 15 24 16 22 17 23 18 9 19 10 20 11 21 12 23 13 24
REMARK SMILES IDX 17 25 14 26 16 27 15 28
REMARK H PARENT 3 9 11 22
ROOT
ATOM      1  C   UNL     1      17.912 -21.570  -0.223  1.00  0.00    +0.108 A 
ATOM      2  S   UNL     1      17.752 -22.118  -1.822  1.00  0.00    -0.126 S 
ATOM      3  C   UNL     1      16.289 -21.282  -2.044  1.00  0.00    +0.068 A 
ATOM      4  C   UNL     1      15.920 -20.589  -0.913  1.00  0.00    +0.028 A 
ATOM      5  C   UNL     1      16.862 -20.744   0.172  1.00  0.00    +0.075 A 
ENDROOT
BRANCH   1   6
ATOM      6  N   UNL     1      18.995 -21.939   0.559  1.00  0.00    -0.311 N 
ATOM      7  O   UNL     1      18.111 -23.558   1.980  1.00  0.00    -0.266 OA
ATOM      8  C   UNL     1      19.050 -22.874   1.581  1.00  0.00    +0.285 C 
ATOM      9  H   UNL     1      19.875 -21.454   0.353  1.00  0.00    +0.171 HD
BRANCH   8  10
ATOM     10  C   UNL     1      20.396 -22.960   2.154  1.00  0.00    +0.183 A 
ATOM     11  N   UNL     1      21.422 -22.291   1.664  1.00  0.00    -0.229 NA
ATOM     12  S   UNL     1      20.724 -23.947   3.513  1.00  0.00    -0.109 S 
ATOM     13  C   UNL     1      22.561 -22.568   2.407  1.00  0.00    +0.100 A 
ATOM     14  C   UNL     1      22.376 -23.459   3.467  1.00  0.00    +0.058 A 
ATOM     15  C   UNL     1      23.845 -22.050   2.196  1.00  0.00    +0.140 A 
ATOM     16  C   UNL     1      23.430 -23.835   4.304  1.00  0.00    +0.041 A 
ATOM     17  N   UNL     1      24.882 -22.402   2.999  1.00  0.00    -0.262 NA
ATOM     18  C   UNL     1      24.657 -23.266   4.011  1.00  0.00    +0.112 A 
ENDBRANCH   8  10
ENDBRANCH   1   6
BRANCH   5  19
ATOM     19  C   UNL     1      16.794 -20.151   1.525  1.00  0.00    +0.261 C 
ATOM     20  O   UNL     1      17.185 -19.002   1.708  1.00  0.00    -0.269 OA
ATOM     21  N   UNL     1      16.280 -20.983   2.483  1.00  0.00    -0.290 N 
ATOM     22  H   UNL     1      15.977 -21.915   2.269  1.00  0.00    +0.173 HD
BRANCH  21  23
ATOM     23  C   UNL     1      16.109 -20.675   3.822  1.00  0.00    +0.229 A 
ATOM     24  N   UNL     1      16.961 -21.322   4.635  1.00  0.00    -0.221 NA
ATOM     25  N   UNL     1      15.178 -19.815   4.241  1.00  0.00    -0.221 NA
ATOM     26  C   UNL     1      16.848 -21.067   5.954  1.00  0.00    +0.117 A 
ATOM     27  C   UNL     1      15.103 -19.592   5.565  1.00  0.00    +0.117 A 
ATOM     28  C   UNL     1      15.924 -20.199   6.482  1.00  0.00    +0.040 A 
ENDBRANCH  21  23
ENDBRANCH   5  19
TORSDOF 4
ENDMDL
MODEL 7
REMARK VINA RESULT:    -6.848      3.168      8.106
REMARK INTER + INTRA:          -9.347
REMARK INTER:                  -8.318
REMARK INTRA:                  -1.030
REMARK UNBOUND:                -0.899
REMARK SMILES O=C(Nc1sccc1C(=O)Nc1ncccn1)c1nc2cnccc2s1
REMARK SMILES IDX 4 1 5 2 6 3 7 4 8 5 3 6 1 7 2 8 18 10 19 11 26 12 20 13
REMARK SMILES IDX 25 14 21 15 24 16 22 17 23 18 9 19 10 20 11 21 12 23 13 24
REMARK SMILES IDX 17 25 14 26 16 27 15 28
REMARK H PARENT 3 9 11 22
ROOT
ATOM      1  C   UNL     1      18.459 -23.957   1.391  1.00  0.00    +0.108 A 
ATOM      2  S   UNL     1      18.183 -25.266   0.345  1.00  0.00    -0.126 S 
ATOM      3  C   UNL     1      16.540 -24.872   0.162  1.00  0.00    +0.068 A 
ATOM      4  C   UNL     1      16.198 -23.754   0.889  1.00  0.00    +0.028 A 
ATOM      5  C   UNL     1      17.313 -23.198   1.620  1.00  0.00    +0.075 A 
ENDROOT
BRANCH   1   6
ATOM      6  N   UNL     1      19.713 -23.718   1.929  1.00  0.00    -0.311 N 
ATOM      7  O   UNL     1      19.582 -24.668   4.051  1.00  0.00    -0.266 OA
ATOM      8  C   UNL     1      20.202 -24.066   3.179  1.00  0.00    +0.285 C 
ATOM      9  H   UNL     1      20.368 -23.216   1.320  1.00  0.00    +0.171 HD
BRANCH   8  10
ATOM     10  C   UNL     1      21.589 -23.623   3.352  1.00  0.00    +0.183 A 
ATOM     11  N   UNL     1      22.295 -23.902   4.432  1.00  0.00    -0.229 NA
ATOM     12  S   UNL     1      22.388 -22.706   2.150  1.00  0.00    -0.109 S 
ATOM     13  C   UNL     1      23.565 -23.356   4.315  1.00  0.00    +0.100 A 
ATOM     14  C   UNL     1      23.805 -22.660   3.128  1.00  0.00    +0.058 A 
ATOM     15  C   UNL     1      24.601 -23.436   5.255  1.00  0.00    +0.140 A 
ATOM     16  C   UNL     1      25.037 -22.054   2.867  1.00  0.00    +0.041 A 
ATOM     17  N   UNL     1      25.805 -22.855   5.020  1.00  0.00    -0.262 NA
ATOM     18  C   UNL     1      25.993 -22.193   3.859  1.00  0.00    +0.112 A 
ENDBRANCH   8  10
ENDBRANCH   1   6
BRANCH   5  19
ATOM     19  C   UNL     1      17.321 -22.009   2.499  1.00  0.00    +0.261 C 
ATOM     20  O   UNL     1      18.213 -21.174   2.387  1.00  0.00    -0.269 OA
ATOM     21  N   UNL     1      16.283 -21.957   3.391  1.00  0.00    -0.290 N 
ATOM     22  H   UNL     1      15.584 -22.674   3.433  1.00  0.00    +0.173 HD
BRANCH  21  23
ATOM     23  C   UNL     1      16.059 -20.956   4.322  1.00  0.00    +0.229 A 
ATOM     24  N   UNL     1      16.673 -21.168   5.498  1.00  0.00    -0.221 NA
ATOM     25  N   UNL     1      15.300 -19.892   4.052  1.00  0.00    -0.221 NA
ATOM     26  C   UNL     1      16.495 -20.229   6.449  1.00  0.00    +0.117 A 
ATOM     27  C   UNL     1      15.151 -18.982   5.031  1.00  0.00    +0.117 A 
ATOM     28  C   UNL     1      15.733 -19.101   6.268  1.00  0.00    +0.040 A 
ENDBRANCH  21  23
ENDBRANCH   5  19
TORSDOF 4
ENDMDL
MODEL 8
REMARK VINA RESULT:    -6.844      5.198      7.876
REMARK INTER + INTRA:          -9.343
REMARK INTER:                  -8.446
REMARK INTRA:                  -0.898
REMARK UNBOUND:                -0.899
REMARK SMILES O=C(Nc1sccc1C(=O)Nc1ncccn1)c1nc2cnccc2s1
REMARK SMILES IDX 4 1 5 2 6 3 7 4 8 5 3 6 1 7 2 8 18 10 19 11 26 12 20 13
REMARK SMILES IDX 25 14 21 15 24 16 22 17 23 18 9 19 10 20 11 21 12 23 13 24
REMARK SMILES IDX 17 25 14 26 16 27 15 28
REMARK H PARENT 3 9 11 22
ROOT
ATOM      1  C   UNL     1      22.389 -22.973  -2.446  1.00  0.00    +0.108 A 
ATOM      2  S   UNL     1      23.152 -24.253  -1.631  1.00  0.00    -0.126 S 
ATOM      3  C   UNL     1      24.298 -24.459  -2.870  1.00  0.00    +0.068 A 
ATOM      4  C   UNL     1      24.106 -23.563  -3.898  1.00  0.00    +0.028 A 
ATOM      5  C   UNL     1      22.988 -22.678  -3.669  1.00  0.00    +0.075 A 
ENDROOT
BRANCH   1   6
ATOM      6  N   UNL     1      21.291 -22.327  -1.901  1.00  0.00    -0.311 N 
ATOM      7  O   UNL     1      19.523 -23.049  -3.234  1.00  0.00    -0.266 OA
ATOM      8  C   UNL     1      19.964 -22.388  -2.297  1.00  0.00    +0.285 C 
ATOM      9  H   UNL     1      21.487 -21.724  -1.096  1.00  0.00    +0.171 HD
BRANCH   8  10
ATOM     10  C   UNL     1      19.114 -21.547  -1.449  1.00  0.00    +0.183 A 
ATOM     11  N   UNL     1      18.574 -20.421  -1.876  1.00  0.00    -0.229 NA
ATOM     12  S   UNL     1      18.765 -21.979   0.169  1.00  0.00    -0.109 S 
ATOM     13  C   UNL     1      17.825 -19.845  -0.860  1.00  0.00    +0.100 A 
ATOM     14  C   UNL     1      17.810 -20.557   0.343  1.00  0.00    +0.058 A 
ATOM     15  C   UNL     1      17.103 -18.647  -0.928  1.00  0.00    +0.140 A 
ATOM     16  C   UNL     1      17.101 -20.101   1.457  1.00  0.00    +0.041 A 
ATOM     17  N   UNL     1      16.406 -18.188   0.144  1.00  0.00    -0.262 NA
ATOM     18  C   UNL     1      16.420 -18.908   1.286  1.00  0.00    +0.112 A 
ENDBRANCH   8  10
ENDBRANCH   1   6
BRANCH   5  19
ATOM     19  C   UNL     1      22.489 -21.599  -4.547  1.00  0.00    +0.261 C 
ATOM     20  O   UNL     1      22.135 -20.529  -4.059  1.00  0.00    -0.269 OA
ATOM     21  N   UNL     1      22.470 -21.915  -5.879  1.00  0.00    -0.290 N 
ATOM     22  H   UNL     1      22.773 -22.810  -6.216  1.00  0.00    +0.173 HD
BRANCH  21  23
ATOM     23  C   UNL     1      22.050 -21.088  -6.907  1.00  0.00    +0.229 A 
ATOM     24  N   UNL     1      20.716 -21.053  -7.058  1.00  0.00    -0.221 NA
ATOM     25  N   UNL     1      22.910 -20.400  -7.663  1.00  0.00    -0.221 NA
ATOM     26  C   UNL     1      20.240 -20.265  -8.044  1.00  0.00    +0.117 A 
ATOM     27  C   UNL     1      22.390 -19.628  -8.633  1.00  0.00    +0.117 A 
ATOM     28  C   UNL     1      21.043 -19.521  -8.873  1.00  0.00    +0.040 A 
ENDBRANCH  21  23
ENDBRANCH   5  19
TORSDOF 4
ENDMDL
MODEL 9
REMARK VINA RESULT:    -6.771      3.672      7.957
REMARK INTER + INTRA:          -9.253
REMARK INTER:                  -8.281
REMARK INTRA:                  -0.971
REMARK UNBOUND:                -0.899
REMARK SMILES O=C(Nc1sccc1C(=O)Nc1ncccn1)c1nc2cnccc2s1
REMARK SMILES IDX 4 1 5 2 6 3 7 4 8 5 3 6 1 7 2 8 18 10 19 11 26 12 20 13
REMARK SMILES IDX 25 14 21 15 24 16 22 17 23 18 9 19 10 20 11 21 12 23 13 24
REMARK SMILES IDX 17 25 14 26 16 27 15 28
REMARK H PARENT 3 9 11 22
ROOT
ATOM      1  C   UNL     1      18.200 -20.222  -0.632  1.00  0.00    +0.108 A 
ATOM      2  S   UNL     1      17.109 -18.932  -0.799  1.00  0.00    -0.126 S 
ATOM      3  C   UNL     1      16.504 -19.139   0.776  1.00  0.00    +0.068 A 
ATOM      4  C   UNL     1      17.125 -20.180   1.429  1.00  0.00    +0.028 A 
ATOM      5  C   UNL     1      18.127 -20.832   0.619  1.00  0.00    +0.075 A 
ENDROOT
BRANCH   1   6
ATOM      6  N   UNL     1      19.050 -20.584  -1.665  1.00  0.00    -0.311 N 
ATOM      7  O   UNL     1      17.899 -22.303  -2.735  1.00  0.00    -0.266 OA
ATOM      8  C   UNL     1      18.874 -21.564  -2.630  1.00  0.00    +0.285 C 
ATOM      9  H   UNL     1      19.926 -20.055  -1.723  1.00  0.00    +0.171 HD
BRANCH   8  10
ATOM     10  C   UNL     1      20.019 -21.624  -3.544  1.00  0.00    +0.183 A 
ATOM     11  N   UNL     1      19.952 -21.211  -4.796  1.00  0.00    -0.229 NA
ATOM     12  S   UNL     1      21.532 -22.242  -3.038  1.00  0.00    -0.109 S 
ATOM     13  C   UNL     1      21.181 -21.389  -5.415  1.00  0.00    +0.100 A 
ATOM     14  C   UNL     1      22.177 -21.945  -4.607  1.00  0.00    +0.058 A 
ATOM     15  C   UNL     1      21.506 -21.071  -6.740  1.00  0.00    +0.140 A 
ATOM     16  C   UNL     1      23.466 -22.185  -5.091  1.00  0.00    +0.041 A 
ATOM     17  N   UNL     1      22.753 -21.296  -7.228  1.00  0.00    -0.262 NA
ATOM     18  C   UNL     1      23.683 -21.835  -6.412  1.00  0.00    +0.112 A 
ENDBRANCH   8  10
ENDBRANCH   1   6
BRANCH   5  19
ATOM     19  C   UNL     1      18.987 -21.978   0.985  1.00  0.00    +0.261 C 
ATOM     20  O   UNL     1      18.882 -23.038   0.376  1.00  0.00    -0.269 OA
ATOM     21  N   UNL     1      19.855 -21.729   2.015  1.00  0.00    -0.290 N 
ATOM     22  H   UNL     1      19.892 -20.838   2.474  1.00  0.00    +0.173 HD
BRANCH  21  23
ATOM     23  C   UNL     1      20.763 -22.627   2.550  1.00  0.00    +0.229 A 
ATOM     24  N   UNL     1      20.245 -23.408   3.512  1.00  0.00    -0.221 NA
ATOM     25  N   UNL     1      22.030 -22.691   2.131  1.00  0.00    -0.221 NA
ATOM     26  C   UNL     1      21.079 -24.306   4.075  1.00  0.00    +0.117 A 
ATOM     27  C   UNL     1      22.824 -23.601   2.721  1.00  0.00    +0.117 A 
ATOM     28  C   UNL     1      22.396 -24.447   3.713  1.00  0.00    +0.040 A 
ENDBRANCH  21  23
ENDBRANCH   5  19
TORSDOF 4
ENDMDL
