MODEL 1
REMARK VINA RESULT:    -8.739      0.000      0.000
REMARK INTER + INTRA:         -13.943
REMARK INTER:                 -11.804
REMARK INTRA:                  -2.139
REMARK UNBOUND:                -2.139
REMARK SMILES CC1(c2ccc(S(=O)(=O)N3CCOCC3)cc2)NC(=O)N(CC(=O)c2ccc(F)cc2F)C1=O
REMARK SMILES IDX 1 1 2 2 18 3 19 4 20 5 21 6 33 7 34 8 3 10 4 11 17 12 5 13
REMARK SMILES IDX 16 14 6 15 7 16 8 17 9 18 10 19 11 20 15 21 12 22 14 23
REMARK SMILES IDX 13 24 22 25 23 26 24 27 25 28 26 29 31 30 27 31 30 32 28 33
REMARK SMILES IDX 32 34 29 35
REMARK H PARENT 18 9
ROOT
ATOM      1  C   UNL     1      20.884 -23.805   3.623  1.00  0.00    +0.051 C 
ATOM      2  C   UNL     1      19.745 -23.578   2.627  1.00  0.00    +0.144 C 
ATOM      3  N   UNL     1      19.574 -24.765   1.814  1.00  0.00    -0.319 N 
ATOM      4  C   UNL     1      19.836 -24.546   0.487  1.00  0.00    +0.325 C 
ATOM      5  O   UNL     1      19.723 -25.395  -0.380  1.00  0.00    -0.248 OA
ATOM      6  N   UNL     1      20.256 -23.266   0.327  1.00  0.00    -0.254 N 
ATOM      7  C   UNL     1      20.201 -22.593   1.519  1.00  0.00    +0.261 C 
ATOM      8  O   UNL     1      20.472 -21.411   1.685  1.00  0.00    -0.271 OA
ATOM      9  H   UNL     1      19.264 -25.669   2.145  1.00  0.00    +0.166 HD
ENDROOT
BRANCH   2  10
ATOM     10  C   UNL     1      18.452 -23.122   3.303  1.00  0.00    -0.013 A 
ATOM     11  C   UNL     1      17.328 -22.693   2.571  1.00  0.00    +0.008 A 
ATOM     12  C   UNL     1      18.364 -23.105   4.710  1.00  0.00    +0.008 A 
ATOM     13  C   UNL     1      16.158 -22.282   3.217  1.00  0.00    +0.022 A 
ATOM     14  C   UNL     1      17.199 -22.694   5.363  1.00  0.00    +0.022 A 
ATOM     15  C   UNL     1      16.090 -22.305   4.612  1.00  0.00    +0.082 A 
BRANCH  15  16
ATOM     16  S   UNL     1      14.615 -21.744   5.436  1.00  0.00    +0.243 S 
ATOM     17  O   UNL     1      13.499 -22.003   4.551  1.00  0.00    -0.207 OA
ATOM     18  O   UNL     1      14.642 -22.276   6.781  1.00  0.00    -0.207 OA
BRANCH  16  19
ATOM     19  N   UNL     1      14.826 -20.065   5.534  1.00  0.00    -0.193 NA
ATOM     20  C   UNL     1      13.604 -19.220   5.418  1.00  0.00    +0.131 C 
ATOM     21  C   UNL     1      15.739 -19.556   6.596  1.00  0.00    +0.131 C 
ATOM     22  C   UNL     1      14.016 -17.759   5.199  1.00  0.00    +0.177 C 
ATOM     23  C   UNL     1      16.060 -18.081   6.327  1.00  0.00    +0.177 C 
ATOM     24  O   UNL     1      14.859 -17.295   6.266  1.00  0.00    -0.379 OA
ENDBRANCH  16  19
ENDBRANCH  15  16
ENDBRANCH   2  10
BRANCH   6  25
ATOM     25  C   UNL     1      20.553 -22.664  -0.954  1.00  0.00    +0.211 C 
BRANCH  25  26
ATOM     26  C   UNL     1      19.361 -22.308  -1.840  1.00  0.00    +0.185 C 
ATOM     27  O   UNL     1      19.294 -22.678  -3.012  1.00  0.00    -0.292 OA
BRANCH  26  28
ATOM     28  C   UNL     1      18.260 -21.471  -1.332  1.00  0.00    +0.055 A 
ATOM     29  C   UNL     1      18.448 -20.087  -1.245  1.00  0.00    +0.018 A 
ATOM     30  C   UNL     1      17.030 -22.030  -0.992  1.00  0.00    +0.136 A 
ATOM     31  C   UNL     1      17.408 -19.279  -0.780  1.00  0.00    +0.040 A 
ATOM     32  C   UNL     1      15.992 -21.230  -0.530  1.00  0.00    +0.079 A 
ATOM     33  C   UNL     1      16.193 -19.860  -0.425  1.00  0.00    +0.126 A 
ATOM     34  F   UNL     1      16.825 -23.348  -1.108  1.00  0.00    -0.206 F 
ATOM     35  F   UNL     1      15.199 -19.082   0.021  1.00  0.00    -0.207 F 
ENDBRANCH  26  28
ENDBRANCH  25  26
ENDBRANCH   6  25
TORSDOF 6
ENDMDL
MODEL 2
REMARK VINA RESULT:    -8.650      3.720      8.828
REMARK INTER + INTRA:         -13.823
REMARK INTER:                 -12.975
REMARK INTRA:                  -0.848
REMARK UNBOUND:                -2.139
REMARK SMILES CC1(c2ccc(S(=O)(=O)N3CCOCC3)cc2)NC(=O)N(CC(=O)c2ccc(F)cc2F)C1=O
REMARK SMILES IDX 1 1 2 2 18 3 19 4 20 5 21 6 33 7 34 8 3 10 4 11 17 12 5 13
REMARK SMILES IDX 16 14 6 15 7 16 8 17 9 18 10 19 11 20 15 21 12 22 14 23
REMARK SMILES IDX 13 24 22 25 23 26 24 27 25 28 26 29 31 30 27 31 30 32 28 33
REMARK SMILES IDX 32 34 29 35
REMARK H PARENT 18 9
ROOT
ATOM      1  C   UNL     1      15.907 -23.274  -0.555  1.00  0.00    +0.051 C 
ATOM      2  C   UNL     1      17.128 -22.682   0.150  1.00  0.00    +0.144 C 
ATOM      3  N   UNL     1      17.470 -23.506   1.292  1.00  0.00    -0.319 N 
ATOM      4  C   UNL     1      17.339 -22.845   2.486  1.00  0.00    +0.325 C 
ATOM      5  O   UNL     1      17.605 -23.334   3.570  1.00  0.00    -0.248 OA
ATOM      6  N   UNL     1      16.849 -21.602   2.248  1.00  0.00    -0.254 N 
ATOM      7  C   UNL     1      16.727 -21.386   0.901  1.00  0.00    +0.261 C 
ATOM      8  O   UNL     1      16.357 -20.345   0.375  1.00  0.00    -0.271 OA
ATOM      9  H   UNL     1      17.804 -24.459   1.255  1.00  0.00    +0.166 HD
ENDROOT
BRANCH   2  10
ATOM     10  C   UNL     1      18.304 -22.455  -0.799  1.00  0.00    -0.013 A 
ATOM     11  C   UNL     1      18.139 -21.919  -2.092  1.00  0.00    +0.008 A 
ATOM     12  C   UNL     1      19.610 -22.801  -0.395  1.00  0.00    +0.008 A 
ATOM     13  C   UNL     1      19.235 -21.720  -2.938  1.00  0.00    +0.022 A 
ATOM     14  C   UNL     1      20.709 -22.607  -1.235  1.00  0.00    +0.022 A 
ATOM     15  C   UNL     1      20.519 -22.046  -2.498  1.00  0.00    +0.082 A 
BRANCH  15  16
ATOM     16  S   UNL     1      21.909 -21.830  -3.589  1.00  0.00    +0.243 S 
ATOM     17  O   UNL     1      22.417 -20.490  -3.387  1.00  0.00    -0.207 OA
ATOM     18  O   UNL     1      22.766 -22.986  -3.433  1.00  0.00    -0.207 OA
BRANCH  16  19
ATOM     19  N   UNL     1      21.217 -21.900  -5.136  1.00  0.00    -0.193 NA
ATOM     20  C   UNL     1      21.707 -20.916  -6.142  1.00  0.00    +0.131 C 
ATOM     21  C   UNL     1      21.037 -23.250  -5.739  1.00  0.00    +0.131 C 
ATOM     22  C   UNL     1      20.758 -20.908  -7.347  1.00  0.00    +0.177 C 
ATOM     23  C   UNL     1      20.118 -23.143  -6.961  1.00  0.00    +0.177 C 
ATOM     24  O   UNL     1      20.647 -22.218  -7.925  1.00  0.00    -0.379 OA
ENDBRANCH  16  19
ENDBRANCH  15  16
ENDBRANCH   2  10
BRANCH   6  25
ATOM     25  C   UNL     1      16.653 -20.599   3.272  1.00  0.00    +0.211 C 
BRANCH  25  26
ATOM     26  C   UNL     1      15.363 -20.689   4.085  1.00  0.00    +0.185 C 
ATOM     27  O   UNL     1      14.895 -21.772   4.435  1.00  0.00    -0.292 OA
BRANCH  26  28
ATOM     28  C   UNL     1      14.609 -19.477   4.449  1.00  0.00    +0.055 A 
ATOM     29  C   UNL     1      14.195 -19.311   5.776  1.00  0.00    +0.018 A 
ATOM     30  C   UNL     1      14.352 -18.480   3.509  1.00  0.00    +0.136 A 
ATOM     31  C   UNL     1      13.492 -18.160   6.139  1.00  0.00    +0.040 A 
ATOM     32  C   UNL     1      13.655 -17.333   3.866  1.00  0.00    +0.079 A 
ATOM     33  C   UNL     1      13.228 -17.186   5.179  1.00  0.00    +0.126 A 
ATOM     34  F   UNL     1      14.777 -18.609   2.246  1.00  0.00    -0.206 F 
ATOM     35  F   UNL     1      12.553 -16.084   5.531  1.00  0.00    -0.207 F 
ENDBRANCH  26  28
ENDBRANCH  25  26
ENDBRANCH   6  25
TORSDOF 6
ENDMDL
MODEL 3
REMARK VINA RESULT:    -8.384      4.101      9.165
REMARK INTER + INTRA:         -13.464
REMARK INTER:                 -12.829
REMARK INTRA:                  -0.635
REMARK UNBOUND:                -2.139
REMARK SMILES CC1(c2ccc(S(=O)(=O)N3CCOCC3)cc2)NC(=O)N(CC(=O)c2ccc(F)cc2F)C1=O
REMARK SMILES IDX 1 1 2 2 18 3 19 4 20 5 21 6 33 7 34 8 3 10 4 11 17 12 5 13
REMARK SMILES IDX 16 14 6 15 7 16 8 17 9 18 10 19 11 20 15 21 12 22 14 23
REMARK SMILES IDX 13 24 22 25 23 26 24 27 25 28 26 29 31 30 27 31 30 32 28 33
REMARK SMILES IDX 32 34 29 35
REMARK H PARENT 18 9
ROOT
ATOM      1  C   UNL     1      15.772 -22.223  -1.381  1.00  0.00    +0.051 C 
ATOM      2  C   UNL     1      17.013 -21.892  -0.552  1.00  0.00    +0.144 C 
ATOM      3  N   UNL     1      16.967 -22.624   0.698  1.00  0.00    -0.319 N 
ATOM      4  C   UNL     1      16.880 -21.805   1.793  1.00  0.00    +0.325 C 
ATOM      5  O   UNL     1      16.862 -22.206   2.944  1.00  0.00    -0.248 OA
ATOM      6  N   UNL     1      16.792 -20.518   1.374  1.00  0.00    -0.254 N 
ATOM      7  C   UNL     1      16.902 -20.451   0.011  1.00  0.00    +0.261 C 
ATOM      8  O   UNL     1      16.907 -19.424  -0.656  1.00  0.00    -0.271 OA
ATOM      9  H   UNL     1      17.022 -23.628   0.797  1.00  0.00    +0.166 HD
ENDROOT
BRANCH   2  10
ATOM     10  C   UNL     1      18.314 -22.107  -1.326  1.00  0.00    -0.013 A 
ATOM     11  C   UNL     1      19.478 -22.619  -0.719  1.00  0.00    +0.008 A 
ATOM     12  C   UNL     1      18.381 -21.772  -2.693  1.00  0.00    +0.008 A 
ATOM     13  C   UNL     1      20.653 -22.806  -1.453  1.00  0.00    +0.022 A 
ATOM     14  C   UNL     1      19.552 -21.954  -3.433  1.00  0.00    +0.022 A 
ATOM     15  C   UNL     1      20.680 -22.493  -2.813  1.00  0.00    +0.082 A 
BRANCH  15  16
ATOM     16  S   UNL     1      22.187 -22.694  -3.738  1.00  0.00    +0.243 S 
ATOM     17  O   UNL     1      23.166 -21.788  -3.176  1.00  0.00    -0.207 OA
ATOM     18  O   UNL     1      22.451 -24.114  -3.835  1.00  0.00    -0.207 OA
BRANCH  16  19
ATOM     19  N   UNL     1      21.784 -22.132  -5.286  1.00  0.00    -0.193 NA
ATOM     20  C   UNL     1      22.760 -21.227  -5.955  1.00  0.00    +0.131 C 
ATOM     21  C   UNL     1      21.221 -23.125  -6.243  1.00  0.00    +0.131 C 
ATOM     22  C   UNL     1      22.093 -20.570  -7.170  1.00  0.00    +0.177 C 
ATOM     23  C   UNL     1      20.620 -22.389  -7.447  1.00  0.00    +0.177 C 
ATOM     24  O   UNL     1      21.604 -21.561  -8.088  1.00  0.00    -0.379 OA
ENDBRANCH  16  19
ENDBRANCH  15  16
ENDBRANCH   2  10
BRANCH   6  25
ATOM     25  C   UNL     1      16.760 -19.377   2.263  1.00  0.00    +0.211 C 
BRANCH  25  26
ATOM     26  C   UNL     1      15.468 -18.564   2.293  1.00  0.00    +0.185 C 
ATOM     27  O   UNL     1      15.121 -17.867   1.339  1.00  0.00    -0.292 OA
BRANCH  26  28
ATOM     28  C   UNL     1      14.604 -18.553   3.487  1.00  0.00    +0.055 A 
ATOM     29  C   UNL     1      14.624 -19.658   4.345  1.00  0.00    +0.018 A 
ATOM     30  C   UNL     1      13.817 -17.445   3.795  1.00  0.00    +0.136 A 
ATOM     31  C   UNL     1      13.822 -19.656   5.488  1.00  0.00    +0.040 A 
ATOM     32  C   UNL     1      13.019 -17.437   4.932  1.00  0.00    +0.079 A 
ATOM     33  C   UNL     1      13.027 -18.547   5.767  1.00  0.00    +0.126 A 
ATOM     34  F   UNL     1      13.820 -16.366   3.002  1.00  0.00    -0.206 F 
ATOM     35  F   UNL     1      12.259 -18.549   6.864  1.00  0.00    -0.207 F 
ENDBRANCH  26  28
ENDBRANCH  25  26
ENDBRANCH   6  25
TORSDOF 6
ENDMDL
MODEL 4
REMARK VINA RESULT:    -8.373      3.151      4.513
REMARK INTER + INTRA:         -13.449
REMARK INTER:                 -12.396
REMARK INTRA:                  -1.053
REMARK UNBOUND:                -2.139
REMARK SMILES CC1(c2ccc(S(=O)(=O)N3CCOCC3)cc2)NC(=O)N(CC(=O)c2ccc(F)cc2F)C1=O
REMARK SMILES IDX 1 1 2 2 18 3 19 4 20 5 21 6 33 7 34 8 3 10 4 11 17 12 5 13
REMARK SMILES IDX 16 14 6 15 7 16 8 17 9 18 10 19 11 20 15 21 12 22 14 23
REMARK SMILES IDX 13 24 22 25 23 26 24 27 25 28 26 29 31 30 27 31 30 32 28 33
REMARK SMILES IDX 32 34 29 35
REMARK H PARENT 18 9
ROOT
ATOM      1  C   UNL     1      16.184 -23.523  -0.518  1.00  0.00    +0.051 C 
ATOM      2  C   UNL     1      16.991 -22.269  -0.174  1.00  0.00    +0.144 C 
ATOM      3  N   UNL     1      16.768 -21.260  -1.190  1.00  0.00    -0.319 N 
ATOM      4  C   UNL     1      17.904 -20.944  -1.887  1.00  0.00    +0.325 C 
ATOM      5  O   UNL     1      17.954 -20.098  -2.763  1.00  0.00    -0.248 OA
ATOM      6  N   UNL     1      18.918 -21.738  -1.458  1.00  0.00    -0.254 N 
ATOM      7  C   UNL     1      18.499 -22.528  -0.421  1.00  0.00    +0.261 C 
ATOM      8  O   UNL     1      19.198 -23.314   0.205  1.00  0.00    -0.271 OA
ATOM      9  H   UNL     1      15.892 -20.791  -1.375  1.00  0.00    +0.166 HD
ENDROOT
BRANCH   2  10
ATOM     10  C   UNL     1      16.720 -21.764   1.243  1.00  0.00    -0.013 A 
ATOM     11  C   UNL     1      16.698 -20.393   1.565  1.00  0.00    +0.008 A 
ATOM     12  C   UNL     1      16.498 -22.687   2.286  1.00  0.00    +0.008 A 
ATOM     13  C   UNL     1      16.445 -19.961   2.871  1.00  0.00    +0.022 A 
ATOM     14  C   UNL     1      16.247 -22.263   3.594  1.00  0.00    +0.022 A 
ATOM     15  C   UNL     1      16.200 -20.898   3.877  1.00  0.00    +0.082 A 
BRANCH  15  16
ATOM     16  S   UNL     1      15.918 -20.349   5.547  1.00  0.00    +0.243 S 
ATOM     17  O   UNL     1      15.353 -21.462   6.281  1.00  0.00    -0.207 OA
ATOM     18  O   UNL     1      17.127 -19.693   5.998  1.00  0.00    -0.207 OA
BRANCH  16  19
ATOM     19  N   UNL     1      14.714 -19.167   5.382  1.00  0.00    -0.193 NA
ATOM     20  C   UNL     1      13.320 -19.566   5.724  1.00  0.00    +0.131 C 
ATOM     21  C   UNL     1      15.028 -17.802   5.890  1.00  0.00    +0.131 C 
ATOM     22  C   UNL     1      12.346 -18.501   5.209  1.00  0.00    +0.177 C 
ATOM     23  C   UNL     1      13.981 -16.811   5.368  1.00  0.00    +0.177 C 
ATOM     24  O   UNL     1      12.656 -17.209   5.756  1.00  0.00    -0.379 OA
ENDBRANCH  16  19
ENDBRANCH  15  16
ENDBRANCH   2  10
BRANCH   6  25
ATOM     25  C   UNL     1      20.283 -21.630  -1.923  1.00  0.00    +0.211 C 
BRANCH  25  26
ATOM     26  C   UNL     1      20.760 -22.693  -2.910  1.00  0.00    +0.185 C 
ATOM     27  O   UNL     1      21.064 -23.827  -2.541  1.00  0.00    -0.292 OA
BRANCH  26  28
ATOM     28  C   UNL     1      20.911 -22.385  -4.343  1.00  0.00    +0.055 A 
ATOM     29  C   UNL     1      20.185 -23.134  -5.276  1.00  0.00    +0.018 A 
ATOM     30  C   UNL     1      21.720 -21.334  -4.772  1.00  0.00    +0.136 A 
ATOM     31  C   UNL     1      20.306 -22.844  -6.636  1.00  0.00    +0.040 A 
ATOM     32  C   UNL     1      21.842 -21.041  -6.124  1.00  0.00    +0.079 A 
ATOM     33  C   UNL     1      21.135 -21.803  -7.045  1.00  0.00    +0.126 A 
ATOM     34  F   UNL     1      22.389 -20.585  -3.887  1.00  0.00    -0.206 F 
ATOM     35  F   UNL     1      21.250 -21.528  -8.351  1.00  0.00    -0.207 F 
ENDBRANCH  26  28
ENDBRANCH  25  26
ENDBRANCH   6  25
TORSDOF 6
ENDMDL
MODEL 5
REMARK VINA RESULT:    -8.261      3.195      4.432
REMARK INTER + INTRA:         -13.298
REMARK INTER:                 -13.030
REMARK INTRA:                  -0.267
REMARK UNBOUND:                -2.139
REMARK SMILES CC1(c2ccc(S(=O)(=O)N3CCOCC3)cc2)NC(=O)N(CC(=O)c2ccc(F)cc2F)C1=O
REMARK SMILES IDX 1 1 2 2 18 3 19 4 20 5 21 6 33 7 34 8 3 10 4 11 17 12 5 13
REMARK SMILES IDX 16 14 6 15 7 16 8 17 9 18 10 19 11 20 15 21 12 22 14 23
REMARK SMILES IDX 13 24 22 25 23 26 24 27 25 28 26 29 31 30 27 31 30 32 28 33
REMARK SMILES IDX 32 34 29 35
REMARK H PARENT 18 9
ROOT
ATOM      1  C   UNL     1      17.516 -24.250   0.989  1.00  0.00    +0.051 C 
ATOM      2  C   UNL     1      17.382 -22.765   0.649  1.00  0.00    +0.144 C 
ATOM      3  N   UNL     1      16.565 -22.615  -0.539  1.00  0.00    -0.319 N 
ATOM      4  C   UNL     1      17.251 -22.072  -1.593  1.00  0.00    +0.325 C 
ATOM      5  O   UNL     1      16.752 -21.827  -2.678  1.00  0.00    -0.248 OA
ATOM      6  N   UNL     1      18.546 -21.892  -1.230  1.00  0.00    -0.254 N 
ATOM      7  C   UNL     1      18.724 -22.229   0.086  1.00  0.00    +0.261 C 
ATOM      8  O   UNL     1      19.770 -22.130   0.713  1.00  0.00    -0.271 OA
ATOM      9  H   UNL     1      15.584 -22.843  -0.614  1.00  0.00    +0.166 HD
ENDROOT
BRANCH   2  10
ATOM     10  C   UNL     1      16.883 -21.932   1.830  1.00  0.00    -0.013 A 
ATOM     11  C   UNL     1      17.034 -20.533   1.885  1.00  0.00    +0.008 A 
ATOM     12  C   UNL     1      16.260 -22.569   2.923  1.00  0.00    +0.008 A 
ATOM     13  C   UNL     1      16.565 -19.798   2.978  1.00  0.00    +0.022 A 
ATOM     14  C   UNL     1      15.792 -21.841   4.020  1.00  0.00    +0.022 A 
ATOM     15  C   UNL     1      15.926 -20.453   4.033  1.00  0.00    +0.082 A 
BRANCH  15  16
ATOM     16  S   UNL     1      15.366 -19.522   5.443  1.00  0.00    +0.243 S 
ATOM     17  O   UNL     1      14.519 -20.393   6.230  1.00  0.00    -0.207 OA
ATOM     18  O   UNL     1      16.523 -18.878   6.026  1.00  0.00    -0.207 OA
BRANCH  16  19
ATOM     19  N   UNL     1      14.386 -18.317   4.762  1.00  0.00    -0.193 NA
ATOM     20  C   UNL     1      14.259 -18.304   3.278  1.00  0.00    +0.131 C 
ATOM     21  C   UNL     1      13.076 -18.054   5.421  1.00  0.00    +0.131 C 
ATOM     22  C   UNL     1      13.625 -16.981   2.833  1.00  0.00    +0.177 C 
ATOM     23  C   UNL     1      12.492 -16.741   4.886  1.00  0.00    +0.177 C 
ATOM     24  O   UNL     1      12.345 -16.787   3.457  1.00  0.00    -0.379 OA
ENDBRANCH  16  19
ENDBRANCH  15  16
ENDBRANCH   2  10
BRANCH   6  25
ATOM     25  C   UNL     1      19.545 -21.270  -2.071  1.00  0.00    +0.211 C 
BRANCH  25  26
ATOM     26  C   UNL     1      20.575 -22.195  -2.716  1.00  0.00    +0.185 C 
ATOM     27  O   UNL     1      21.277 -22.949  -2.042  1.00  0.00    -0.292 OA
BRANCH  26  28
ATOM     28  C   UNL     1      20.794 -22.189  -4.173  1.00  0.00    +0.055 A 
ATOM     29  C   UNL     1      20.036 -23.053  -4.973  1.00  0.00    +0.018 A 
ATOM     30  C   UNL     1      21.698 -21.307  -4.760  1.00  0.00    +0.136 A 
ATOM     31  C   UNL     1      20.222 -23.048  -6.357  1.00  0.00    +0.040 A 
ATOM     32  C   UNL     1      21.886 -21.298  -6.137  1.00  0.00    +0.079 A 
ATOM     33  C   UNL     1      21.147 -22.173  -6.923  1.00  0.00    +0.126 A 
ATOM     34  F   UNL     1      22.400 -20.450  -4.009  1.00  0.00    -0.206 F 
ATOM     35  F   UNL     1      21.323 -22.172  -8.251  1.00  0.00    -0.207 F 
ENDBRANCH  26  28
ENDBRANCH  25  26
ENDBRANCH   6  25
TORSDOF 6
ENDMDL
MODEL 6
REMARK VINA RESULT:    -8.113      4.004      9.017
REMARK INTER + INTRA:         -13.098
REMARK INTER:                 -11.907
REMARK INTRA:                  -1.191
REMARK UNBOUND:                -2.139
REMARK SMILES CC1(c2ccc(S(=O)(=O)N3CCOCC3)cc2)NC(=O)N(CC(=O)c2ccc(F)cc2F)C1=O
REMARK SMILES IDX 1 1 2 2 18 3 19 4 20 5 21 6 33 7 34 8 3 10 4 11 17 12 5 13
REMARK SMILES IDX 16 14 6 15 7 16 8 17 9 18 10 19 11 20 15 21 12 22 14 23
REMARK SMILES IDX 13 24 22 25 23 26 24 27 25 28 26 29 31 30 27 31 30 32 28 33
REMARK SMILES IDX 32 34 29 35
REMARK H PARENT 18 9
ROOT
ATOM      1  C   UNL     1      17.637 -20.079  -0.425  1.00  0.00    +0.051 C 
ATOM      2  C   UNL     1      18.040 -21.540  -0.219  1.00  0.00    +0.144 C 
ATOM      3  N   UNL     1      16.856 -22.374  -0.244  1.00  0.00    -0.319 N 
ATOM      4  C   UNL     1      16.621 -23.005   0.950  1.00  0.00    +0.325 C 
ATOM      5  O   UNL     1      15.700 -23.779   1.143  1.00  0.00    -0.248 OA
ATOM      6  N   UNL     1      17.552 -22.600   1.851  1.00  0.00    -0.254 N 
ATOM      7  C   UNL     1      18.462 -21.768   1.256  1.00  0.00    +0.261 C 
ATOM      8  O   UNL     1      19.445 -21.279   1.798  1.00  0.00    -0.271 OA
ATOM      9  H   UNL     1      16.257 -22.527  -1.044  1.00  0.00    +0.166 HD
ENDROOT
BRANCH   2  10
ATOM     10  C   UNL     1      19.118 -21.998  -1.202  1.00  0.00    -0.013 A 
ATOM     11  C   UNL     1      20.018 -23.040  -0.903  1.00  0.00    +0.008 A 
ATOM     12  C   UNL     1      19.246 -21.358  -2.452  1.00  0.00    +0.008 A 
ATOM     13  C   UNL     1      20.993 -23.439  -1.823  1.00  0.00    +0.022 A 
ATOM     14  C   UNL     1      20.219 -21.750  -3.375  1.00  0.00    +0.022 A 
ATOM     15  C   UNL     1      21.076 -22.806  -3.065  1.00  0.00    +0.082 A 
BRANCH  15  16
ATOM     16  S   UNL     1      22.342 -23.287  -4.220  1.00  0.00    +0.243 S 
ATOM     17  O   UNL     1      23.618 -22.908  -3.650  1.00  0.00    -0.207 OA
ATOM     18  O   UNL     1      22.075 -24.654  -4.612  1.00  0.00    -0.207 OA
BRANCH  16  19
ATOM     19  N   UNL     1      22.055 -22.293  -5.564  1.00  0.00    -0.193 NA
ATOM     20  C   UNL     1      23.241 -21.654  -6.200  1.00  0.00    +0.131 C 
ATOM     21  C   UNL     1      21.095 -22.795  -6.586  1.00  0.00    +0.131 C 
ATOM     22  C   UNL     1      22.770 -20.557  -7.163  1.00  0.00    +0.177 C 
ATOM     23  C   UNL     1      20.716 -21.650  -7.533  1.00  0.00    +0.177 C 
ATOM     24  O   UNL     1      21.882 -21.090  -8.158  1.00  0.00    -0.379 OA
ENDBRANCH  16  19
ENDBRANCH  15  16
ENDBRANCH   2  10
BRANCH   6  25
ATOM     25  C   UNL     1      17.655 -23.118   3.197  1.00  0.00    +0.211 C 
BRANCH  25  26
ATOM     26  C   UNL     1      17.551 -22.105   4.335  1.00  0.00    +0.185 C 
ATOM     27  O   UNL     1      18.495 -21.889   5.095  1.00  0.00    -0.292 OA
BRANCH  26  28
ATOM     28  C   UNL     1      16.297 -21.374   4.589  1.00  0.00    +0.055 A 
ATOM     29  C   UNL     1      15.399 -21.882   5.534  1.00  0.00    +0.018 A 
ATOM     30  C   UNL     1      16.025 -20.169   3.945  1.00  0.00    +0.136 A 
ATOM     31  C   UNL     1      14.213 -21.192   5.797  1.00  0.00    +0.040 A 
ATOM     32  C   UNL     1      14.847 -19.478   4.204  1.00  0.00    +0.079 A 
ATOM     33  C   UNL     1      13.950 -20.000   5.127  1.00  0.00    +0.126 A 
ATOM     34  F   UNL     1      16.895 -19.653   3.068  1.00  0.00    -0.206 F 
ATOM     35  F   UNL     1      12.812 -19.341   5.381  1.00  0.00    -0.207 F 
ENDBRANCH  26  28
ENDBRANCH  25  26
ENDBRANCH   6  25
TORSDOF 6
ENDMDL
MODEL 7
REMARK VINA RESULT:    -8.006      3.981      8.325
REMARK INTER + INTRA:         -12.954
REMARK INTER:                 -11.958
REMARK INTRA:                  -0.995
REMARK UNBOUND:                -2.139
REMARK SMILES CC1(c2ccc(S(=O)(=O)N3CCOCC3)cc2)NC(=O)N(CC(=O)c2ccc(F)cc2F)C1=O
REMARK SMILES IDX 1 1 2 2 18 3 19 4 20 5 21 6 33 7 34 8 3 10 4 11 17 12 5 13
REMARK SMILES IDX 16 14 6 15 7 16 8 17 9 18 10 19 11 20 15 21 12 22 14 23
REMARK SMILES IDX 13 24 22 25 23 26 24 27 25 28 26 29 31 30 27 31 30 32 28 33
REMARK SMILES IDX 32 34 29 35
REMARK H PARENT 18 9
ROOT
ATOM      1  C   UNL     1      16.900 -22.596  -1.124  1.00  0.00    +0.051 C 
ATOM      2  C   UNL     1      17.845 -22.226   0.021  1.00  0.00    +0.144 C 
ATOM      3  N   UNL     1      17.393 -22.861   1.243  1.00  0.00    -0.319 N 
ATOM      4  C   UNL     1      17.011 -21.961   2.203  1.00  0.00    +0.325 C 
ATOM      5  O   UNL     1      16.629 -22.273   3.317  1.00  0.00    -0.248 OA
ATOM      6  N   UNL     1      17.106 -20.707   1.692  1.00  0.00    -0.254 N 
ATOM      7  C   UNL     1      17.627 -20.745   0.426  1.00  0.00    +0.261 C 
ATOM      8  O   UNL     1      17.875 -19.772  -0.274  1.00  0.00    -0.271 OA
ATOM      9  H   UNL     1      17.375 -23.855   1.420  1.00  0.00    +0.166 HD
ENDROOT
BRANCH   2  10
ATOM     10  C   UNL     1      19.309 -22.522  -0.303  1.00  0.00    -0.013 A 
ATOM     11  C   UNL     1      20.295 -22.638   0.696  1.00  0.00    +0.008 A 
ATOM     12  C   UNL     1      19.714 -22.673  -1.645  1.00  0.00    +0.008 A 
ATOM     13  C   UNL     1      21.627 -22.911   0.369  1.00  0.00    +0.022 A 
ATOM     14  C   UNL     1      21.043 -22.943  -1.980  1.00  0.00    +0.022 A 
ATOM     15  C   UNL     1      21.993 -23.084  -0.967  1.00  0.00    +0.082 A 
BRANCH  15  16
ATOM     16  S   UNL     1      23.695 -23.393  -1.386  1.00  0.00    +0.243 S 
ATOM     17  O   UNL     1      24.021 -24.727  -0.929  1.00  0.00    -0.207 OA
ATOM     18  O   UNL     1      23.877 -23.012  -2.771  1.00  0.00    -0.207 OA
BRANCH  16  19
ATOM     19  N   UNL     1      24.550 -22.288  -0.425  1.00  0.00    -0.193 NA
ATOM     20  C   UNL     1      25.242 -22.829   0.778  1.00  0.00    +0.131 C 
ATOM     21  C   UNL     1      25.393 -21.284  -1.131  1.00  0.00    +0.131 C 
ATOM     22  C   UNL     1      25.670 -21.669   1.684  1.00  0.00    +0.177 C 
ATOM     23  C   UNL     1      25.815 -20.189  -0.145  1.00  0.00    +0.177 C 
ATOM     24  O   UNL     1      26.517 -20.748   0.978  1.00  0.00    -0.379 OA
ENDBRANCH  16  19
ENDBRANCH  15  16
ENDBRANCH   2  10
BRANCH   6  25
ATOM     25  C   UNL     1      16.852 -19.502   2.451  1.00  0.00    +0.211 C 
BRANCH  25  26
ATOM     26  C   UNL     1      15.456 -18.895   2.333  1.00  0.00    +0.185 C 
ATOM     27  O   UNL     1      15.010 -18.508   1.253  1.00  0.00    -0.292 OA
BRANCH  26  28
ATOM     28  C   UNL     1      14.604 -18.713   3.521  1.00  0.00    +0.055 A 
ATOM     29  C   UNL     1      14.609 -19.699   4.514  1.00  0.00    +0.018 A 
ATOM     30  C   UNL     1      13.841 -17.559   3.688  1.00  0.00    +0.136 A 
ATOM     31  C   UNL     1      13.818 -19.533   5.652  1.00  0.00    +0.040 A 
ATOM     32  C   UNL     1      13.053 -17.389   4.820  1.00  0.00    +0.079 A 
ATOM     33  C   UNL     1      13.046 -18.382   5.791  1.00  0.00    +0.126 A 
ATOM     34  F   UNL     1      13.858 -16.591   2.763  1.00  0.00    -0.206 F 
ATOM     35  F   UNL     1      12.288 -18.226   6.884  1.00  0.00    -0.207 F 
ENDBRANCH  26  28
ENDBRANCH  25  26
ENDBRANCH   6  25
TORSDOF 6
ENDMDL
MODEL 8
REMARK VINA RESULT:    -8.001      3.538      8.544
REMARK INTER + INTRA:         -12.947
REMARK INTER:                 -11.911
REMARK INTRA:                  -1.037
REMARK UNBOUND:                -2.139
REMARK SMILES CC1(c2ccc(S(=O)(=O)N3CCOCC3)cc2)NC(=O)N(CC(=O)c2ccc(F)cc2F)C1=O
REMARK SMILES IDX 1 1 2 2 18 3 19 4 20 5 21 6 33 7 34 8 3 10 4 11 17 12 5 13
REMARK SMILES IDX 16 14 6 15 7 16 8 17 9 18 10 19 11 20 15 21 12 22 14 23
REMARK SMILES IDX 13 24 22 25 23 26 24 27 25 28 26 29 31 30 27 31 30 32 28 33
REMARK SMILES IDX 32 34 29 35
REMARK H PARENT 18 9
ROOT
ATOM      1  C   UNL     1      15.701 -23.924   0.385  1.00  0.00    +0.051 C 
ATOM      2  C   UNL     1      17.103 -23.455   0.774  1.00  0.00    +0.144 C 
ATOM      3  N   UNL     1      17.676 -24.387   1.724  1.00  0.00    -0.319 N 
ATOM      4  C   UNL     1      17.912 -23.823   2.950  1.00  0.00    +0.325 C 
ATOM      5  O   UNL     1      18.420 -24.415   3.887  1.00  0.00    -0.248 OA
ATOM      6  N   UNL     1      17.465 -22.542   2.938  1.00  0.00    -0.254 N 
ATOM      7  C   UNL     1      17.007 -22.208   1.691  1.00  0.00    +0.261 C 
ATOM      8  O   UNL     1      16.585 -21.109   1.356  1.00  0.00    -0.271 OA
ATOM      9  H   UNL     1      17.921 -25.349   1.534  1.00  0.00    +0.166 HD
ENDROOT
BRANCH   2  10
ATOM     10  C   UNL     1      18.000 -23.206  -0.439  1.00  0.00    -0.013 A 
ATOM     11  C   UNL     1      19.330 -23.667  -0.502  1.00  0.00    +0.008 A 
ATOM     12  C   UNL     1      17.505 -22.477  -1.540  1.00  0.00    +0.008 A 
ATOM     13  C   UNL     1      20.126 -23.426  -1.626  1.00  0.00    +0.022 A 
ATOM     14  C   UNL     1      18.296 -22.230  -2.665  1.00  0.00    +0.022 A 
ATOM     15  C   UNL     1      19.599 -22.726  -2.713  1.00  0.00    +0.082 A 
BRANCH  15  16
ATOM     16  S   UNL     1      20.624 -22.384  -4.128  1.00  0.00    +0.243 S 
ATOM     17  O   UNL     1      20.273 -23.337  -5.160  1.00  0.00    -0.207 OA
ATOM     18  O   UNL     1      20.564 -20.959  -4.373  1.00  0.00    -0.207 OA
BRANCH  16  19
ATOM     19  N   UNL     1      22.188 -22.754  -3.586  1.00  0.00    -0.193 NA
ATOM     20  C   UNL     1      22.932 -23.808  -4.331  1.00  0.00    +0.131 C 
ATOM     21  C   UNL     1      23.073 -21.609  -3.235  1.00  0.00    +0.131 C 
ATOM     22  C   UNL     1      24.161 -24.233  -3.518  1.00  0.00    +0.177 C 
ATOM     23  C   UNL     1      24.296 -22.127  -2.469  1.00  0.00    +0.177 C 
ATOM     24  O   UNL     1      25.010 -23.108  -3.239  1.00  0.00    -0.379 OA
ENDBRANCH  16  19
ENDBRANCH  15  16
ENDBRANCH   2  10
BRANCH   6  25
ATOM     25  C   UNL     1      17.617 -21.621   4.042  1.00  0.00    +0.211 C 
BRANCH  25  26
ATOM     26  C   UNL     1      16.595 -21.726   5.172  1.00  0.00    +0.185 C 
ATOM     27  O   UNL     1      16.492 -22.744   5.857  1.00  0.00    -0.292 OA
BRANCH  26  28
ATOM     28  C   UNL     1      15.664 -20.621   5.461  1.00  0.00    +0.055 A 
ATOM     29  C   UNL     1      16.177 -19.419   5.962  1.00  0.00    +0.018 A 
ATOM     30  C   UNL     1      14.302 -20.740   5.193  1.00  0.00    +0.136 A 
ATOM     31  C   UNL     1      15.309 -18.357   6.225  1.00  0.00    +0.040 A 
ATOM     32  C   UNL     1      13.434 -19.686   5.452  1.00  0.00    +0.079 A 
ATOM     33  C   UNL     1      13.947 -18.504   5.970  1.00  0.00    +0.126 A 
ATOM     34  F   UNL     1      13.806 -21.871   4.676  1.00  0.00    -0.206 F 
ATOM     35  F   UNL     1      13.118 -17.484   6.225  1.00  0.00    -0.207 F 
ENDBRANCH  26  28
ENDBRANCH  25  26
ENDBRANCH   6  25
TORSDOF 6
ENDMDL
MODEL 9
REMARK VINA RESULT:    -7.721      4.425      8.046
REMARK INTER + INTRA:         -12.568
REMARK INTER:                 -11.395
REMARK INTRA:                  -1.173
REMARK UNBOUND:                -2.139
REMARK SMILES CC1(c2ccc(S(=O)(=O)N3CCOCC3)cc2)NC(=O)N(CC(=O)c2ccc(F)cc2F)C1=O
REMARK SMILES IDX 1 1 2 2 18 3 19 4 20 5 21 6 33 7 34 8 3 10 4 11 17 12 5 13
REMARK SMILES IDX 16 14 6 15 7 16 8 17 9 18 10 19 11 20 15 21 12 22 14 23
REMARK SMILES IDX 13 24 22 25 23 26 24 27 25 28 26 29 31 30 27 31 30 32 28 33
REMARK SMILES IDX 32 34 29 35
REMARK H PARENT 18 9
ROOT
ATOM      1  C   UNL     1      20.947 -23.711  -0.091  1.00  0.00    +0.051 C 
ATOM      2  C   UNL     1      20.620 -23.525   1.392  1.00  0.00    +0.144 C 
ATOM      3  N   UNL     1      19.956 -24.713   1.891  1.00  0.00    -0.319 N 
ATOM      4  C   UNL     1      18.670 -24.474   2.300  1.00  0.00    +0.325 C 
ATOM      5  O   UNL     1      17.940 -25.321   2.784  1.00  0.00    -0.248 OA
ATOM      6  N   UNL     1      18.363 -23.176   2.049  1.00  0.00    -0.254 N 
ATOM      7  C   UNL     1      19.454 -22.515   1.551  1.00  0.00    +0.261 C 
ATOM      8  O   UNL     1      19.501 -21.323   1.273  1.00  0.00    -0.271 OA
ATOM      9  H   UNL     1      20.371 -25.630   1.975  1.00  0.00    +0.166 HD
ENDROOT
BRANCH   2  10
ATOM     10  C   UNL     1      21.841 -23.127   2.221  1.00  0.00    -0.013 A 
ATOM     11  C   UNL     1      22.033 -23.570   3.544  1.00  0.00    +0.008 A 
ATOM     12  C   UNL     1      22.816 -22.272   1.667  1.00  0.00    +0.008 A 
ATOM     13  C   UNL     1      23.162 -23.190   4.277  1.00  0.00    +0.022 A 
ATOM     14  C   UNL     1      23.945 -21.886   2.394  1.00  0.00    +0.022 A 
ATOM     15  C   UNL     1      24.125 -22.366   3.692  1.00  0.00    +0.082 A 
BRANCH  15  16
ATOM     16  S   UNL     1      25.542 -21.851   4.638  1.00  0.00    +0.243 S 
ATOM     17  O   UNL     1      26.553 -21.408   3.702  1.00  0.00    -0.207 OA
ATOM     18  O   UNL     1      25.066 -20.980   5.692  1.00  0.00    -0.207 OA
BRANCH  16  19
ATOM     19  N   UNL     1      26.087 -23.287   5.356  1.00  0.00    -0.193 NA
ATOM     20  C   UNL     1      26.708 -24.300   4.458  1.00  0.00    +0.131 C 
ATOM     21  C   UNL     1      26.838 -23.163   6.636  1.00  0.00    +0.131 C 
ATOM     22  C   UNL     1      26.832 -25.633   5.205  1.00  0.00    +0.177 C 
ATOM     23  C   UNL     1      26.958 -24.544   7.291  1.00  0.00    +0.177 C 
ATOM     24  O   UNL     1      27.600 -25.480   6.410  1.00  0.00    -0.379 OA
ENDBRANCH  16  19
ENDBRANCH  15  16
ENDBRANCH   2  10
BRANCH   6  25
ATOM     25  C   UNL     1      17.111 -22.554   2.419  1.00  0.00    +0.211 C 
BRANCH  25  26
ATOM     26  C   UNL     1      17.051 -21.890   3.793  1.00  0.00    +0.185 C 
ATOM     27  O   UNL     1      17.950 -22.039   4.621  1.00  0.00    -0.292 OA
BRANCH  26  28
ATOM     28  C   UNL     1      15.891 -21.075   4.193  1.00  0.00    +0.055 A 
ATOM     29  C   UNL     1      14.939 -21.632   5.055  1.00  0.00    +0.018 A 
ATOM     30  C   UNL     1      15.760 -19.754   3.769  1.00  0.00    +0.136 A 
ATOM     31  C   UNL     1      13.842 -20.866   5.455  1.00  0.00    +0.040 A 
ATOM     32  C   UNL     1      14.671 -18.988   4.166  1.00  0.00    +0.079 A 
ATOM     33  C   UNL     1      13.719 -19.554   5.004  1.00  0.00    +0.126 A 
ATOM     34  F   UNL     1      16.685 -19.198   2.976  1.00  0.00    -0.206 F 
ATOM     35  F   UNL     1      12.665 -18.822   5.389  1.00  0.00    -0.207 F 
ENDBRANCH  26  28
ENDBRANCH  25  26
ENDBRANCH   6  25
TORSDOF 6
ENDMDL
