MODEL 1
REMARK VINA RESULT:    -8.520      0.000      0.000
REMARK INTER + INTRA:         -11.377
REMARK INTER:                 -11.011
REMARK INTRA:                  -0.366
REMARK UNBOUND:                -0.366
REMARK SMILES CCOC(=O)NC(=O)c1ccsc1NC(=O)c1nc2cnccc2s1
REMARK SMILES IDX 4 1 5 2 6 3 7 4 8 5 3 7 2 8 1 9 9 10 10 11 13 12 11 13 12 14
REMARK SMILES IDX 14 15 15 16 16 17 17 19 18 20 25 21 19 22 24 23 20 24 23 25
REMARK SMILES IDX 21 26 22 27
REMARK H PARENT 6 6 14 18
ROOT
ATOM      1  C   UNL     1      16.218 -20.826   5.682  1.00  0.00    +0.414 C 
ATOM      2  O   UNL     1      17.089 -20.651   6.516  1.00  0.00    -0.224 OA
ATOM      3  N   UNL     1      15.274 -19.941   5.255  1.00  0.00    -0.257 N 
ATOM      4  C   UNL     1      15.055 -18.692   5.792  1.00  0.00    +0.263 C 
ATOM      5  O   UNL     1      15.683 -18.217   6.732  1.00  0.00    -0.269 OA
ATOM      6  H   UNL     1      14.661 -20.310   4.552  1.00  0.00    +0.176 HD
ENDROOT
BRANCH   1   7
ATOM      7  O   UNL     1      16.048 -21.984   4.987  1.00  0.00    -0.450 OA
BRANCH   7   8
ATOM      8  C   UNL     1      17.267 -22.684   4.702  1.00  0.00    +0.231 C 
ATOM      9  C   UNL     1      17.251 -23.083   3.239  1.00  0.00    +0.049 C 
ENDBRANCH   7   8
ENDBRANCH   1   7
BRANCH   4  10
ATOM     10  C   UNL     1      13.959 -17.933   5.161  1.00  0.00    +0.075 A 
ATOM     11  C   UNL     1      12.845 -17.283   5.809  1.00  0.00    +0.028 A 
ATOM     12  C   UNL     1      13.875 -17.765   3.781  1.00  0.00    +0.108 A 
ATOM     13  C   UNL     1      12.004 -16.654   4.921  1.00  0.00    +0.068 A 
ATOM     14  S   UNL     1      12.530 -16.839   3.314  1.00  0.00    -0.126 S 
BRANCH  12  15
ATOM     15  N   UNL     1      14.760 -18.271   2.843  1.00  0.00    -0.311 N 
ATOM     16  C   UNL     1      15.244 -17.664   1.693  1.00  0.00    +0.285 C 
ATOM     17  O   UNL     1      14.968 -16.531   1.307  1.00  0.00    -0.266 OA
ATOM     18  H   UNL     1      15.094 -19.226   3.010  1.00  0.00    +0.171 HD
BRANCH  16  19
ATOM     19  C   UNL     1      16.157 -18.551   0.965  1.00  0.00    +0.183 A 
ATOM     20  N   UNL     1      16.284 -18.514  -0.349  1.00  0.00    -0.229 NA
ATOM     21  S   UNL     1      17.123 -19.702   1.781  1.00  0.00    -0.109 S 
ATOM     22  C   UNL     1      17.214 -19.461  -0.755  1.00  0.00    +0.100 A 
ATOM     23  C   UNL     1      17.785 -20.213   0.276  1.00  0.00    +0.058 A 
ATOM     24  C   UNL     1      17.623 -19.725  -2.069  1.00  0.00    +0.140 A 
ATOM     25  C   UNL     1      18.737 -21.205   0.023  1.00  0.00    +0.041 A 
ATOM     26  N   UNL     1      18.546 -20.685  -2.333  1.00  0.00    -0.262 NA
ATOM     27  C   UNL     1      19.070 -21.387  -1.308  1.00  0.00    +0.112 A 
ENDBRANCH  16  19
ENDBRANCH  12  15
ENDBRANCH   4  10
TORSDOF 5
ENDMDL
MODEL 2
REMARK VINA RESULT:    -8.420      3.228      7.515
REMARK INTER + INTRA:         -11.247
REMARK INTER:                 -10.239
REMARK INTRA:                  -1.008
REMARK UNBOUND:                -0.366
REMARK SMILES CCOC(=O)NC(=O)c1ccsc1NC(=O)c1nc2cnccc2s1
REMARK SMILES IDX 4 1 5 2 6 3 7 4 8 5 3 7 2 8 1 9 9 10 10 11 13 12 11 13 12 14
REMARK SMILES IDX 14 15 15 16 16 17 17 19 18 20 25 21 19 22 24 23 20 24 23 25
REMARK SMILES IDX 21 26 22 27
REMARK H PARENT 6 6 14 18
ROOT
ATOM      1  C   UNL     1      16.235 -21.747  -2.083  1.00  0.00    +0.414 C 
ATOM      2  O   UNL     1      15.128 -21.849  -2.582  1.00  0.00    -0.224 OA
ATOM      3  N   UNL     1      16.777 -22.495  -1.082  1.00  0.00    -0.257 N 
ATOM      4  C   UNL     1      16.108 -23.451  -0.352  1.00  0.00    +0.263 C 
ATOM      5  O   UNL     1      14.929 -23.749  -0.510  1.00  0.00    -0.269 OA
ATOM      6  H   UNL     1      17.713 -22.228  -0.837  1.00  0.00    +0.176 HD
ENDROOT
BRANCH   1   7
ATOM      7  O   UNL     1      17.168 -20.838  -2.476  1.00  0.00    -0.450 OA
BRANCH   7   8
ATOM      8  C   UNL     1      17.940 -20.284  -1.400  1.00  0.00    +0.231 C 
ATOM      9  C   UNL     1      17.625 -18.804  -1.305  1.00  0.00    +0.049 C 
ENDBRANCH   7   8
ENDBRANCH   1   7
BRANCH   4  10
ATOM     10  C   UNL     1      16.916 -24.110   0.691  1.00  0.00    +0.075 A 
ATOM     11  C   UNL     1      17.633 -25.358   0.598  1.00  0.00    +0.028 A 
ATOM     12  C   UNL     1      17.068 -23.563   1.963  1.00  0.00    +0.108 A 
ATOM     13  C   UNL     1      18.294 -25.682   1.761  1.00  0.00    +0.068 A 
ATOM     14  S   UNL     1      18.058 -24.508   2.969  1.00  0.00    -0.126 S 
BRANCH  12  15
ATOM     15  N   UNL     1      16.502 -22.382   2.416  1.00  0.00    -0.311 N 
ATOM     16  C   UNL     1      17.058 -21.111   2.447  1.00  0.00    +0.285 C 
ATOM     17  O   UNL     1      18.180 -20.807   2.051  1.00  0.00    -0.266 OA
ATOM     18  H   UNL     1      15.551 -22.456   2.792  1.00  0.00    +0.171 HD
BRANCH  16  19
ATOM     19  C   UNL     1      16.125 -20.135   3.018  1.00  0.00    +0.183 A 
ATOM     20  N   UNL     1      15.716 -20.194   4.272  1.00  0.00    -0.229 NA
ATOM     21  S   UNL     1      15.502 -18.844   2.086  1.00  0.00    -0.109 S 
ATOM     22  C   UNL     1      14.845 -19.145   4.530  1.00  0.00    +0.100 A 
ATOM     23  C   UNL     1      14.603 -18.294   3.448  1.00  0.00    +0.058 A 
ATOM     24  C   UNL     1      14.202 -18.868   5.745  1.00  0.00    +0.140 A 
ATOM     25  C   UNL     1      13.748 -17.194   3.555  1.00  0.00    +0.041 A 
ATOM     26  N   UNL     1      13.368 -17.804   5.866  1.00  0.00    -0.262 NA
ATOM     27  C   UNL     1      13.163 -17.010   4.795  1.00  0.00    +0.112 A 
ENDBRANCH  16  19
ENDBRANCH  12  15
ENDBRANCH   4  10
TORSDOF 5
ENDMDL
MODEL 3
REMARK VINA RESULT:    -8.024      2.004      6.290
REMARK INTER + INTRA:         -10.736
REMARK INTER:                 -10.277
REMARK INTRA:                  -0.459
REMARK UNBOUND:                -0.366
REMARK SMILES CCOC(=O)NC(=O)c1ccsc1NC(=O)c1nc2cnccc2s1
REMARK SMILES IDX 4 1 5 2 6 3 7 4 8 5 3 7 2 8 1 9 9 10 10 11 13 12 11 13 12 14
REMARK SMILES IDX 14 15 15 16 16 17 17 19 18 20 25 21 19 22 24 23 20 24 23 25
REMARK SMILES IDX 21 26 22 27
REMARK H PARENT 6 6 14 18
ROOT
ATOM      1  C   UNL     1      17.748 -22.175   3.918  1.00  0.00    +0.414 C 
ATOM      2  O   UNL     1      18.802 -22.343   4.506  1.00  0.00    -0.224 OA
ATOM      3  N   UNL     1      17.553 -21.980   2.583  1.00  0.00    -0.257 N 
ATOM      4  C   UNL     1      18.551 -21.815   1.650  1.00  0.00    +0.263 C 
ATOM      5  O   UNL     1      19.751 -21.819   1.904  1.00  0.00    -0.269 OA
ATOM      6  H   UNL     1      16.590 -21.868   2.326  1.00  0.00    +0.176 HD
ENDROOT
BRANCH   1   7
ATOM      7  O   UNL     1      16.528 -22.174   4.521  1.00  0.00    -0.450 OA
BRANCH   7   8
ATOM      8  C   UNL     1      16.485 -21.450   5.760  1.00  0.00    +0.231 C 
ATOM      9  C   UNL     1      15.435 -22.093   6.646  1.00  0.00    +0.049 C 
ENDBRANCH   7   8
ENDBRANCH   1   7
BRANCH   4  10
ATOM     10  C   UNL     1      18.077 -21.602   0.269  1.00  0.00    +0.075 A 
ATOM     11  C   UNL     1      18.620 -22.155  -0.948  1.00  0.00    +0.028 A 
ATOM     12  C   UNL     1      16.992 -20.779  -0.020  1.00  0.00    +0.108 A 
ATOM     13  C   UNL     1      17.931 -21.756  -2.070  1.00  0.00    +0.068 A 
ATOM     14  S   UNL     1      16.641 -20.717  -1.681  1.00  0.00    -0.126 S 
BRANCH  12  15
ATOM     15  N   UNL     1      16.240 -20.066   0.901  1.00  0.00    -0.311 N 
ATOM     16  C   UNL     1      16.048 -18.695   0.987  1.00  0.00    +0.285 C 
ATOM     17  O   UNL     1      16.518 -17.854   0.225  1.00  0.00    -0.266 OA
ATOM     18  H   UNL     1      15.774 -20.623   1.625  1.00  0.00    +0.171 HD
BRANCH  16  19
ATOM     19  C   UNL     1      15.187 -18.347   2.122  1.00  0.00    +0.183 A 
ATOM     20  N   UNL     1      15.167 -19.052   3.238  1.00  0.00    -0.229 NA
ATOM     21  S   UNL     1      14.145 -16.993   2.069  1.00  0.00    -0.109 S 
ATOM     22  C   UNL     1      14.265 -18.489   4.130  1.00  0.00    +0.100 A 
ATOM     23  C   UNL     1      13.605 -17.348   3.666  1.00  0.00    +0.058 A 
ATOM     24  C   UNL     1      13.963 -18.947   5.420  1.00  0.00    +0.140 A 
ATOM     25  C   UNL     1      12.667 -16.670   4.450  1.00  0.00    +0.041 A 
ATOM     26  N   UNL     1      13.055 -18.302   6.195  1.00  0.00    -0.262 NA
ATOM     27  C   UNL     1      12.441 -17.205   5.706  1.00  0.00    +0.112 A 
ENDBRANCH  16  19
ENDBRANCH  12  15
ENDBRANCH   4  10
TORSDOF 5
ENDMDL
MODEL 4
REMARK VINA RESULT:    -7.925      2.769      4.851
REMARK INTER + INTRA:         -10.607
REMARK INTER:                 -10.275
REMARK INTRA:                  -0.332
REMARK UNBOUND:                -0.366
REMARK SMILES CCOC(=O)NC(=O)c1ccsc1NC(=O)c1nc2cnccc2s1
REMARK SMILES IDX 4 1 5 2 6 3 7 4 8 5 3 7 2 8 1 9 9 10 10 11 13 12 11 13 12 14
REMARK SMILES IDX 14 15 15 16 16 17 17 19 18 20 25 21 19 22 24 23 20 24 23 25
REMARK SMILES IDX 21 26 22 27
REMARK H PARENT 6 6 14 18
ROOT
ATOM      1  C   UNL     1      16.039 -19.370  -0.301  1.00  0.00    +0.414 C 
ATOM      2  O   UNL     1      16.364 -18.539  -1.130  1.00  0.00    -0.224 OA
ATOM      3  N   UNL     1      15.458 -19.162   0.914  1.00  0.00    -0.257 N 
ATOM      4  C   UNL     1      15.236 -17.931   1.489  1.00  0.00    +0.263 C 
ATOM      5  O   UNL     1      15.540 -16.858   0.978  1.00  0.00    -0.269 OA
ATOM      6  H   UNL     1      15.276 -20.006   1.427  1.00  0.00    +0.176 HD
ENDROOT
BRANCH   1   7
ATOM      7  O   UNL     1      16.190 -20.713  -0.465  1.00  0.00    -0.450 OA
BRANCH   7   8
ATOM      8  C   UNL     1      15.642 -21.221  -1.691  1.00  0.00    +0.231 C 
ATOM      9  C   UNL     1      16.399 -22.482  -2.059  1.00  0.00    +0.049 C 
ENDBRANCH   7   8
ENDBRANCH   1   7
BRANCH   4  10
ATOM     10  C   UNL     1      14.605 -17.976   2.821  1.00  0.00    +0.075 A 
ATOM     11  C   UNL     1      13.541 -17.143   3.325  1.00  0.00    +0.028 A 
ATOM     12  C   UNL     1      15.012 -18.880   3.800  1.00  0.00    +0.108 A 
ATOM     13  C   UNL     1      13.182 -17.456   4.616  1.00  0.00    +0.068 A 
ATOM     14  S   UNL     1      14.116 -18.736   5.237  1.00  0.00    -0.126 S 
BRANCH  12  15
ATOM     15  N   UNL     1      16.024 -19.818   3.675  1.00  0.00    -0.311 N 
ATOM     16  C   UNL     1      15.993 -21.172   3.975  1.00  0.00    +0.285 C 
ATOM     17  O   UNL     1      15.022 -21.791   4.405  1.00  0.00    -0.266 OA
ATOM     18  H   UNL     1      16.922 -19.464   3.328  1.00  0.00    +0.171 HD
BRANCH  16  19
ATOM     19  C   UNL     1      17.287 -21.807   3.709  1.00  0.00    +0.183 A 
ATOM     20  N   UNL     1      18.042 -21.473   2.679  1.00  0.00    -0.229 NA
ATOM     21  S   UNL     1      17.905 -23.034   4.728  1.00  0.00    -0.109 S 
ATOM     22  C   UNL     1      19.202 -22.236   2.684  1.00  0.00    +0.100 A 
ATOM     23  C   UNL     1      19.307 -23.151   3.734  1.00  0.00    +0.058 A 
ATOM     24  C   UNL     1      20.250 -22.173   1.755  1.00  0.00    +0.140 A 
ATOM     25  C   UNL     1      20.417 -23.989   3.872  1.00  0.00    +0.041 A 
ATOM     26  N   UNL     1      21.336 -22.980   1.873  1.00  0.00    -0.262 NA
ATOM     27  C   UNL     1      21.394 -23.849   2.902  1.00  0.00    +0.112 A 
ENDBRANCH  16  19
ENDBRANCH  12  15
ENDBRANCH   4  10
TORSDOF 5
ENDMDL
MODEL 5
REMARK VINA RESULT:    -7.894      2.786      6.600
REMARK INTER + INTRA:         -10.568
REMARK INTER:                  -9.850
REMARK INTRA:                  -0.717
REMARK UNBOUND:                -0.366
REMARK SMILES CCOC(=O)NC(=O)c1ccsc1NC(=O)c1nc2cnccc2s1
REMARK SMILES IDX 4 1 5 2 6 3 7 4 8 5 3 7 2 8 1 9 9 10 10 11 13 12 11 13 12 14
REMARK SMILES IDX 14 15 15 16 16 17 17 19 18 20 25 21 19 22 24 23 20 24 23 25
REMARK SMILES IDX 21 26 22 27
REMARK H PARENT 6 6 14 18
ROOT
ATOM      1  C   UNL     1      19.750 -23.977   2.490  1.00  0.00    +0.414 C 
ATOM      2  O   UNL     1      20.156 -23.467   3.519  1.00  0.00    -0.224 OA
ATOM      3  N   UNL     1      19.347 -23.355   1.346  1.00  0.00    -0.257 N 
ATOM      4  C   UNL     1      19.211 -21.995   1.186  1.00  0.00    +0.263 C 
ATOM      5  O   UNL     1      19.433 -21.165   2.061  1.00  0.00    -0.269 OA
ATOM      6  H   UNL     1      19.055 -23.987   0.623  1.00  0.00    +0.176 HD
ENDROOT
BRANCH   1   7
ATOM      7  O   UNL     1      19.644 -25.320   2.293  1.00  0.00    -0.450 OA
BRANCH   7   8
ATOM      8  C   UNL     1      18.916 -25.686   1.112  1.00  0.00    +0.231 C 
ATOM      9  C   UNL     1      17.774 -26.595   1.525  1.00  0.00    +0.049 C 
ENDBRANCH   7   8
ENDBRANCH   1   7
BRANCH   4  10
ATOM     10  C   UNL     1      18.742 -21.573  -0.147  1.00  0.00    +0.075 A 
ATOM     11  C   UNL     1      19.302 -21.915  -1.431  1.00  0.00    +0.028 A 
ATOM     12  C   UNL     1      17.643 -20.733  -0.311  1.00  0.00    +0.108 A 
ATOM     13  C   UNL     1      18.612 -21.355  -2.482  1.00  0.00    +0.068 A 
ATOM     14  S   UNL     1      17.301 -20.414  -1.944  1.00  0.00    -0.126 S 
BRANCH  12  15
ATOM     15  N   UNL     1      16.872 -20.190   0.704  1.00  0.00    -0.311 N 
ATOM     16  C   UNL     1      16.394 -18.894   0.830  1.00  0.00    +0.285 C 
ATOM     17  O   UNL     1      16.569 -17.982   0.026  1.00  0.00    -0.266 OA
ATOM     18  H   UNL     1      16.633 -20.824   1.474  1.00  0.00    +0.171 HD
BRANCH  16  19
ATOM     19  C   UNL     1      15.625 -18.727   2.067  1.00  0.00    +0.183 A 
ATOM     20  N   UNL     1      14.698 -17.797   2.206  1.00  0.00    -0.229 NA
ATOM     21  S   UNL     1      15.885 -19.737   3.422  1.00  0.00    -0.109 S 
ATOM     22  C   UNL     1      14.141 -17.878   3.474  1.00  0.00    +0.100 A 
ATOM     23  C   UNL     1      14.665 -18.885   4.290  1.00  0.00    +0.058 A 
ATOM     24  C   UNL     1      13.127 -17.064   3.999  1.00  0.00    +0.140 A 
ATOM     25  C   UNL     1      14.204 -19.089   5.594  1.00  0.00    +0.041 A 
ATOM     26  N   UNL     1      12.668 -17.248   5.263  1.00  0.00    -0.262 NA
ATOM     27  C   UNL     1      13.203 -18.232   6.014  1.00  0.00    +0.112 A 
ENDBRANCH  16  19
ENDBRANCH  12  15
ENDBRANCH   4  10
TORSDOF 5
ENDMDL
MODEL 6
REMARK VINA RESULT:    -7.768      3.657      5.679
REMARK INTER + INTRA:         -10.404
REMARK INTER:                  -9.528
REMARK INTRA:                  -0.877
REMARK UNBOUND:                -0.366
REMARK SMILES CCOC(=O)NC(=O)c1ccsc1NC(=O)c1nc2cnccc2s1
REMARK SMILES IDX 4 1 5 2 6 3 7 4 8 5 3 7 2 8 1 9 9 10 10 11 13 12 11 13 12 14
REMARK SMILES IDX 14 15 15 16 16 17 17 19 18 20 25 21 19 22 24 23 20 24 23 25
REMARK SMILES IDX 21 26 22 27
REMARK H PARENT 6 6 14 18
ROOT
ATOM      1  C   UNL     1      15.598 -19.186   5.962  1.00  0.00    +0.414 C 
ATOM      2  O   UNL     1      15.794 -20.183   6.634  1.00  0.00    -0.224 OA
ATOM      3  N   UNL     1      15.756 -19.034   4.617  1.00  0.00    -0.257 N 
ATOM      4  C   UNL     1      16.297 -19.975   3.769  1.00  0.00    +0.263 C 
ATOM      5  O   UNL     1      16.710 -21.074   4.122  1.00  0.00    -0.269 OA
ATOM      6  H   UNL     1      15.528 -18.116   4.282  1.00  0.00    +0.176 HD
ENDROOT
BRANCH   1   7
ATOM      7  O   UNL     1      15.145 -18.004   6.463  1.00  0.00    -0.450 OA
BRANCH   7   8
ATOM      8  C   UNL     1      14.035 -17.446   5.744  1.00  0.00    +0.231 C 
ATOM      9  C   UNL     1      12.784 -18.203   6.145  1.00  0.00    +0.049 C 
ENDBRANCH   7   8
ENDBRANCH   1   7
BRANCH   4  10
ATOM     10  C   UNL     1      16.375 -19.561   2.356  1.00  0.00    +0.075 A 
ATOM     11  C   UNL     1      15.465 -18.706   1.633  1.00  0.00    +0.028 A 
ATOM     12  C   UNL     1      17.397 -19.994   1.515  1.00  0.00    +0.108 A 
ATOM     13  C   UNL     1      15.838 -18.516   0.322  1.00  0.00    +0.068 A 
ATOM     14  S   UNL     1      17.265 -19.361  -0.056  1.00  0.00    -0.126 S 
BRANCH  12  15
ATOM     15  N   UNL     1      18.435 -20.843   1.863  1.00  0.00    -0.311 N 
ATOM     16  C   UNL     1      18.677 -22.139   1.430  1.00  0.00    +0.285 C 
ATOM     17  O   UNL     1      17.993 -22.767   0.627  1.00  0.00    -0.266 OA
ATOM     18  H   UNL     1      19.109 -20.473   2.542  1.00  0.00    +0.171 HD
BRANCH  16  19
ATOM     19  C   UNL     1      19.882 -22.693   2.054  1.00  0.00    +0.183 A 
ATOM     20  N   UNL     1      21.090 -22.499   1.559  1.00  0.00    -0.229 NA
ATOM     21  S   UNL     1      19.797 -23.636   3.478  1.00  0.00    -0.109 S 
ATOM     22  C   UNL     1      22.031 -23.138   2.355  1.00  0.00    +0.100 A 
ATOM     23  C   UNL     1      21.510 -23.817   3.460  1.00  0.00    +0.058 A 
ATOM     24  C   UNL     1      23.418 -23.162   2.160  1.00  0.00    +0.140 A 
ATOM     25  C   UNL     1      22.333 -24.508   4.354  1.00  0.00    +0.041 A 
ATOM     26  N   UNL     1      24.232 -23.828   3.018  1.00  0.00    -0.262 NA
ATOM     27  C   UNL     1      23.686 -24.471   4.069  1.00  0.00    +0.112 A 
ENDBRANCH  16  19
ENDBRANCH  12  15
ENDBRANCH   4  10
TORSDOF 5
ENDMDL
MODEL 7
REMARK VINA RESULT:    -7.657      3.297      7.739
REMARK INTER + INTRA:         -10.261
REMARK INTER:                  -9.391
REMARK INTRA:                  -0.871
REMARK UNBOUND:                -0.366
REMARK SMILES CCOC(=O)NC(=O)c1ccsc1NC(=O)c1nc2cnccc2s1
REMARK SMILES IDX 4 1 5 2 6 3 7 4 8 5 3 7 2 8 1 9 9 10 10 11 13 12 11 13 12 14
REMARK SMILES IDX 14 15 15 16 16 17 17 19 18 20 25 21 19 22 24 23 20 24 23 25
REMARK SMILES IDX 21 26 22 27
REMARK H PARENT 6 6 14 18
ROOT
ATOM      1  C   UNL     1      18.814 -21.008  -2.132  1.00  0.00    +0.414 C 
ATOM      2  O   UNL     1      18.036 -20.084  -2.297  1.00  0.00    -0.224 OA
ATOM      3  N   UNL     1      18.714 -22.042  -1.250  1.00  0.00    -0.257 N 
ATOM      4  C   UNL     1      17.747 -22.168  -0.279  1.00  0.00    +0.263 C 
ATOM      5  O   UNL     1      16.850 -21.356  -0.079  1.00  0.00    -0.269 OA
ATOM      6  H   UNL     1      19.478 -22.691  -1.298  1.00  0.00    +0.176 HD
ENDROOT
BRANCH   1   7
ATOM      7  O   UNL     1      19.957 -21.181  -2.849  1.00  0.00    -0.450 OA
BRANCH   7   8
ATOM      8  C   UNL     1      20.159 -22.521  -3.321  1.00  0.00    +0.231 C 
ATOM      9  C   UNL     1      20.423 -22.461  -4.813  1.00  0.00    +0.049 C 
ENDBRANCH   7   8
ENDBRANCH   1   7
BRANCH   4  10
ATOM     10  C   UNL     1      17.869 -23.374   0.562  1.00  0.00    +0.075 A 
ATOM     11  C   UNL     1      18.503 -24.626   0.226  1.00  0.00    +0.028 A 
ATOM     12  C   UNL     1      17.336 -23.435   1.847  1.00  0.00    +0.108 A 
ATOM     13  C   UNL     1      18.443 -25.545   1.248  1.00  0.00    +0.068 A 
ATOM     14  S   UNL     1      17.627 -24.927   2.606  1.00  0.00    -0.126 S 
BRANCH  12  15
ATOM     15  N   UNL     1      16.638 -22.425   2.490  1.00  0.00    -0.311 N 
ATOM     16  C   UNL     1      17.005 -21.698   3.614  1.00  0.00    +0.285 C 
ATOM     17  O   UNL     1      18.054 -21.825   4.241  1.00  0.00    -0.266 OA
ATOM     18  H   UNL     1      15.723 -22.190   2.094  1.00  0.00    +0.171 HD
BRANCH  16  19
ATOM     19  C   UNL     1      15.972 -20.726   3.981  1.00  0.00    +0.183 A 
ATOM     20  N   UNL     1      15.715 -19.655   3.252  1.00  0.00    -0.229 NA
ATOM     21  S   UNL     1      15.024 -20.920   5.391  1.00  0.00    -0.109 S 
ATOM     22  C   UNL     1      14.693 -18.924   3.840  1.00  0.00    +0.100 A 
ATOM     23  C   UNL     1      14.184 -19.461   5.025  1.00  0.00    +0.058 A 
ATOM     24  C   UNL     1      14.138 -17.726   3.367  1.00  0.00    +0.140 A 
ATOM     25  C   UNL     1      13.152 -18.837   5.733  1.00  0.00    +0.041 A 
ATOM     26  N   UNL     1      13.136 -17.107   4.041  1.00  0.00    -0.262 NA
ATOM     27  C   UNL     1      12.676 -17.661   5.181  1.00  0.00    +0.112 A 
ENDBRANCH  16  19
ENDBRANCH  12  15
ENDBRANCH   4  10
TORSDOF 5
ENDMDL
MODEL 8
REMARK VINA RESULT:    -7.534      2.828      7.464
REMARK INTER + INTRA:         -10.102
REMARK INTER:                  -9.602
REMARK INTRA:                  -0.500
REMARK UNBOUND:                -0.366
REMARK SMILES CCOC(=O)NC(=O)c1ccsc1NC(=O)c1nc2cnccc2s1
REMARK SMILES IDX 4 1 5 2 6 3 7 4 8 5 3 7 2 8 1 9 9 10 10 11 13 12 11 13 12 14
REMARK SMILES IDX 14 15 15 16 16 17 17 19 18 20 25 21 19 22 24 23 20 24 23 25
REMARK SMILES IDX 21 26 22 27
REMARK H PARENT 6 6 14 18
ROOT
ATOM      1  C   UNL     1      16.193 -22.055  -0.554  1.00  0.00    +0.414 C 
ATOM      2  O   UNL     1      15.426 -22.770  -1.176  1.00  0.00    -0.224 OA
ATOM      3  N   UNL     1      17.079 -22.416   0.416  1.00  0.00    -0.257 N 
ATOM      4  C   UNL     1      17.185 -23.673   0.967  1.00  0.00    +0.263 C 
ATOM      5  O   UNL     1      16.488 -24.633   0.654  1.00  0.00    -0.269 OA
ATOM      6  H   UNL     1      17.611 -21.650   0.785  1.00  0.00    +0.176 HD
ENDROOT
BRANCH   1   7
ATOM      7  O   UNL     1      16.313 -20.713  -0.748  1.00  0.00    -0.450 OA
BRANCH   7   8
ATOM      8  C   UNL     1      17.395 -20.338  -1.613  1.00  0.00    +0.231 C 
ATOM      9  C   UNL     1      17.744 -18.889  -1.331  1.00  0.00    +0.049 C 
ENDBRANCH   7   8
ENDBRANCH   1   7
BRANCH   4  10
ATOM     10  C   UNL     1      18.214 -23.803   2.015  1.00  0.00    +0.075 A 
ATOM     11  C   UNL     1      19.312 -24.738   2.067  1.00  0.00    +0.028 A 
ATOM     12  C   UNL     1      18.223 -22.990   3.146  1.00  0.00    +0.108 A 
ATOM     13  C   UNL     1      20.094 -24.583   3.189  1.00  0.00    +0.068 A 
ATOM     14  S   UNL     1      19.520 -23.332   4.189  1.00  0.00    -0.126 S 
BRANCH  12  15
ATOM     15  N   UNL     1      17.305 -21.995   3.443  1.00  0.00    -0.311 N 
ATOM     16  C   UNL     1      16.530 -21.842   4.583  1.00  0.00    +0.285 C 
ATOM     17  O   UNL     1      16.538 -22.585   5.562  1.00  0.00    -0.266 OA
ATOM     18  H   UNL     1      17.168 -21.282   2.719  1.00  0.00    +0.171 HD
BRANCH  16  19
ATOM     19  C   UNL     1      15.675 -20.655   4.492  1.00  0.00    +0.183 A 
ATOM     20  N   UNL     1      14.795 -20.342   5.425  1.00  0.00    -0.229 NA
ATOM     21  S   UNL     1      15.765 -19.591   3.156  1.00  0.00    -0.109 S 
ATOM     22  C   UNL     1      14.136 -19.173   5.072  1.00  0.00    +0.100 A 
ATOM     23  C   UNL     1      14.533 -18.611   3.855  1.00  0.00    +0.058 A 
ATOM     24  C   UNL     1      13.134 -18.520   5.804  1.00  0.00    +0.140 A 
ATOM     25  C   UNL     1      13.959 -17.434   3.366  1.00  0.00    +0.041 A 
ATOM     26  N   UNL     1      12.566 -17.377   5.344  1.00  0.00    -0.262 NA
ATOM     27  C   UNL     1      12.979 -16.871   4.165  1.00  0.00    +0.112 A 
ENDBRANCH  16  19
ENDBRANCH  12  15
ENDBRANCH   4  10
TORSDOF 5
ENDMDL
MODEL 9
REMARK VINA RESULT:    -7.389      3.700      5.698
REMARK INTER + INTRA:          -9.915
REMARK INTER:                  -9.047
REMARK INTRA:                  -0.868
REMARK UNBOUND:                -0.366
REMARK SMILES CCOC(=O)NC(=O)c1ccsc1NC(=O)c1nc2cnccc2s1
REMARK SMILES IDX 4 1 5 2 6 3 7 4 8 5 3 7 2 8 1 9 9 10 10 11 13 12 11 13 12 14
REMARK SMILES IDX 14 15 15 16 16 17 17 19 18 20 25 21 19 22 24 23 20 24 23 25
REMARK SMILES IDX 21 26 22 27
REMARK H PARENT 6 6 14 18
ROOT
ATOM      1  C   UNL     1      17.277 -20.820  -1.456  1.00  0.00    +0.414 C 
ATOM      2  O   UNL     1      17.839 -20.134  -2.292  1.00  0.00    -0.224 OA
ATOM      3  N   UNL     1      16.664 -20.412  -0.310  1.00  0.00    -0.257 N 
ATOM      4  C   UNL     1      16.673 -19.127   0.184  1.00  0.00    +0.263 C 
ATOM      5  O   UNL     1      17.243 -18.181  -0.349  1.00  0.00    -0.269 OA
ATOM      6  H   UNL     1      16.263 -21.162   0.224  1.00  0.00    +0.176 HD
ENDROOT
BRANCH   1   7
ATOM      7  O   UNL     1      17.143 -22.171  -1.543  1.00  0.00    -0.450 OA
BRANCH   7   8
ATOM      8  C   UNL     1      16.129 -22.718  -0.687  1.00  0.00    +0.231 C 
ATOM      9  C   UNL     1      16.631 -24.044  -0.148  1.00  0.00    +0.049 C 
ENDBRANCH   7   8
ENDBRANCH   1   7
BRANCH   4  10
ATOM     10  C   UNL     1      15.948 -18.948   1.455  1.00  0.00    +0.075 A 
ATOM     11  C   UNL     1      14.837 -18.068   1.724  1.00  0.00    +0.028 A 
ATOM     12  C   UNL     1      16.295 -19.649   2.608  1.00  0.00    +0.108 A 
ATOM     13  C   UNL     1      14.390 -18.153   3.022  1.00  0.00    +0.068 A 
ATOM     14  S   UNL     1      15.295 -19.273   3.929  1.00  0.00    -0.126 S 
BRANCH  12  15
ATOM     15  N   UNL     1      17.328 -20.565   2.727  1.00  0.00    -0.311 N 
ATOM     16  C   UNL     1      17.252 -21.934   2.935  1.00  0.00    +0.285 C 
ATOM     17  O   UNL     1      16.218 -22.589   3.041  1.00  0.00    -0.266 OA
ATOM     18  H   UNL     1      18.277 -20.181   2.666  1.00  0.00    +0.171 HD
BRANCH  16  19
ATOM     19  C   UNL     1      18.586 -22.536   3.014  1.00  0.00    +0.183 A 
ATOM     20  N   UNL     1      19.501 -22.359   2.078  1.00  0.00    -0.229 NA
ATOM     21  S   UNL     1      19.046 -23.517   4.337  1.00  0.00    -0.109 S 
ATOM     22  C   UNL     1      20.659 -23.043   2.420  1.00  0.00    +0.100 A 
ATOM     23  C   UNL     1      20.601 -23.740   3.630  1.00  0.00    +0.058 A 
ATOM     24  C   UNL     1      21.850 -23.098   1.683  1.00  0.00    +0.140 A 
ATOM     25  C   UNL     1      21.689 -24.476   4.107  1.00  0.00    +0.041 A 
ATOM     26  N   UNL     1      22.916 -23.807   2.131  1.00  0.00    -0.262 NA
ATOM     27  C   UNL     1      22.816 -24.466   3.303  1.00  0.00    +0.112 A 
ENDBRANCH  16  19
ENDBRANCH  12  15
ENDBRANCH   4  10
TORSDOF 5
ENDMDL
