MODEL 1
REMARK VINA RESULT:    -8.420      0.000      0.000
REMARK INTER + INTRA:         -11.522
REMARK INTER:                 -10.882
REMARK INTRA:                  -0.640
REMARK UNBOUND:                -0.640
REMARK SMILES CCOC(=O)NC(=O)c1ccsc1NC(=O)c1ccc(C#N)cn1
REMARK SMILES IDX 4 1 5 2 6 3 7 4 8 5 3 7 2 8 1 9 9 10 10 11 13 12 11 13 12 14
REMARK SMILES IDX 14 15 15 16 16 17 17 19 18 20 24 21 19 22 23 23 20 24 21 25
REMARK SMILES IDX 22 26
REMARK H PARENT 6 6 14 18
ROOT
ATOM      1  C   UNL     1      16.385 -21.143   5.720  1.00  0.00    +0.414 C 
ATOM      2  O   UNL     1      17.305 -20.979   6.503  1.00  0.00    -0.224 OA
ATOM      3  N   UNL     1      15.443 -20.238   5.331  1.00  0.00    -0.257 N 
ATOM      4  C   UNL     1      15.455 -18.896   5.636  1.00  0.00    +0.263 C 
ATOM      5  O   UNL     1      16.320 -18.344   6.308  1.00  0.00    -0.269 OA
ATOM      6  H   UNL     1      14.776 -20.604   4.676  1.00  0.00    +0.176 HD
ENDROOT
BRANCH   1   7
ATOM      7  O   UNL     1      16.110 -22.322   5.097  1.00  0.00    -0.450 OA
BRANCH   7   8
ATOM      8  C   UNL     1      16.432 -22.379   3.697  1.00  0.00    +0.231 C 
ATOM      9  C   UNL     1      17.833 -22.929   3.505  1.00  0.00    +0.049 C 
ENDBRANCH   7   8
ENDBRANCH   1   7
BRANCH   4  10
ATOM     10  C   UNL     1      14.336 -18.126   5.063  1.00  0.00    +0.075 A 
ATOM     11  C   UNL     1      13.275 -17.453   5.774  1.00  0.00    +0.028 A 
ATOM     12  C   UNL     1      14.186 -17.944   3.692  1.00  0.00    +0.108 A 
ATOM     13  C   UNL     1      12.379 -16.832   4.932  1.00  0.00    +0.068 A 
ATOM     14  S   UNL     1      12.805 -17.037   3.297  1.00  0.00    -0.126 S 
BRANCH  12  15
ATOM     15  N   UNL     1      15.032 -18.423   2.706  1.00  0.00    -0.312 N 
ATOM     16  C   UNL     1      15.438 -17.792   1.546  1.00  0.00    +0.274 C 
ATOM     17  O   UNL     1      15.124 -16.682   1.135  1.00  0.00    -0.267 OA
ATOM     18  H   UNL     1      15.423 -19.359   2.858  1.00  0.00    +0.171 HD
BRANCH  16  19
ATOM     19  C   UNL     1      16.380 -18.632   0.733  1.00  0.00    +0.128 A 
ATOM     20  C   UNL     1      17.038 -19.712   1.311  1.00  0.00    +0.035 A 
ATOM     21  N   UNL     1      16.538 -18.269  -0.571  1.00  0.00    -0.250 NA
ATOM     22  C   UNL     1      17.903 -20.464   0.515  1.00  0.00    +0.023 A 
ATOM     23  C   UNL     1      17.383 -19.021  -1.316  1.00  0.00    +0.131 A 
ATOM     24  C   UNL     1      18.082 -20.115  -0.825  1.00  0.00    +0.070 A 
ATOM     25  C   UNL     1      18.957 -20.858  -1.675  1.00  0.00    +0.101 C 
ATOM     26  N   UNL     1      19.669 -21.461  -2.364  1.00  0.00    -0.192 NA
ENDBRANCH  16  19
ENDBRANCH  12  15
ENDBRANCH   4  10
TORSDOF 5
ENDMDL
MODEL 2
REMARK VINA RESULT:    -8.099      3.774      7.629
REMARK INTER + INTRA:         -11.106
REMARK INTER:                 -10.251
REMARK INTRA:                  -0.855
REMARK UNBOUND:                -0.640
REMARK SMILES CCOC(=O)NC(=O)c1ccsc1NC(=O)c1ccc(C#N)cn1
REMARK SMILES IDX 4 1 5 2 6 3 7 4 8 5 3 7 2 8 1 9 9 10 10 11 13 12 11 13 12 14
REMARK SMILES IDX 14 15 15 16 16 17 17 19 18 20 24 21 19 22 23 23 20 24 21 25
REMARK SMILES IDX 22 26
REMARK H PARENT 6 6 14 18
ROOT
ATOM      1  C   UNL     1      15.935 -21.739  -1.830  1.00  0.00    +0.414 C 
ATOM      2  O   UNL     1      14.738 -21.650  -2.044  1.00  0.00    -0.224 OA
ATOM      3  N   UNL     1      16.572 -22.578  -0.963  1.00  0.00    -0.257 N 
ATOM      4  C   UNL     1      15.978 -23.610  -0.274  1.00  0.00    +0.263 C 
ATOM      5  O   UNL     1      14.789 -23.903  -0.350  1.00  0.00    -0.269 OA
ATOM      6  H   UNL     1      17.570 -22.467  -0.953  1.00  0.00    +0.176 HD
ENDROOT
BRANCH   1   7
ATOM      7  O   UNL     1      16.881 -20.960  -2.423  1.00  0.00    -0.450 OA
BRANCH   7   8
ATOM      8  C   UNL     1      17.883 -20.418  -1.548  1.00  0.00    +0.231 C 
ATOM      9  C   UNL     1      17.609 -18.950  -1.283  1.00  0.00    +0.049 C 
ENDBRANCH   7   8
ENDBRANCH   1   7
BRANCH   4  10
ATOM     10  C   UNL     1      16.897 -24.390   0.574  1.00  0.00    +0.075 A 
ATOM     11  C   UNL     1      17.736 -25.496   0.180  1.00  0.00    +0.028 A 
ATOM     12  C   UNL     1      17.074 -24.113   1.926  1.00  0.00    +0.108 A 
ATOM     13  C   UNL     1      18.470 -26.010   1.226  1.00  0.00    +0.068 A 
ATOM     14  S   UNL     1      18.171 -25.170   2.676  1.00  0.00    -0.126 S 
BRANCH  12  15
ATOM     15  N   UNL     1      16.454 -23.102   2.642  1.00  0.00    -0.312 N 
ATOM     16  C   UNL     1      16.954 -21.859   2.978  1.00  0.00    +0.274 C 
ATOM     17  O   UNL     1      18.060 -21.393   2.729  1.00  0.00    -0.267 OA
ATOM     18  H   UNL     1      15.493 -23.288   2.951  1.00  0.00    +0.171 HD
BRANCH  16  19
ATOM     19  C   UNL     1      15.969 -21.029   3.747  1.00  0.00    +0.128 A 
ATOM     20  C   UNL     1      15.285 -21.572   4.830  1.00  0.00    +0.035 A 
ATOM     21  N   UNL     1      15.798 -19.747   3.320  1.00  0.00    -0.250 NA
ATOM     22  C   UNL     1      14.379 -20.761   5.516  1.00  0.00    +0.023 A 
ATOM     23  C   UNL     1      14.913 -18.987   4.009  1.00  0.00    +0.131 A 
ATOM     24  C   UNL     1      14.187 -19.442   5.101  1.00  0.00    +0.070 A 
ATOM     25  C   UNL     1      13.270 -18.578   5.774  1.00  0.00    +0.101 C 
ATOM     26  N   UNL     1      12.525 -17.879   6.321  1.00  0.00    -0.192 NA
ENDBRANCH  16  19
ENDBRANCH  12  15
ENDBRANCH   4  10
TORSDOF 5
ENDMDL
MODEL 3
REMARK VINA RESULT:    -7.699      2.328      4.820
REMARK INTER + INTRA:         -10.590
REMARK INTER:                 -10.364
REMARK INTRA:                  -0.227
REMARK UNBOUND:                -0.640
REMARK SMILES CCOC(=O)NC(=O)c1ccsc1NC(=O)c1ccc(C#N)cn1
REMARK SMILES IDX 4 1 5 2 6 3 7 4 8 5 3 7 2 8 1 9 9 10 10 11 13 12 11 13 12 14
REMARK SMILES IDX 14 15 15 16 16 17 17 19 18 20 24 21 19 22 23 23 20 24 21 25
REMARK SMILES IDX 22 26
REMARK H PARENT 6 6 14 18
ROOT
ATOM      1  C   UNL     1      16.048 -19.045   0.082  1.00  0.00    +0.414 C 
ATOM      2  O   UNL     1      16.535 -18.222  -0.674  1.00  0.00    -0.224 OA
ATOM      3  N   UNL     1      15.373 -18.819   1.246  1.00  0.00    -0.257 N 
ATOM      4  C   UNL     1      14.971 -17.586   1.705  1.00  0.00    +0.263 C 
ATOM      5  O   UNL     1      15.176 -16.526   1.122  1.00  0.00    -0.269 OA
ATOM      6  H   UNL     1      15.068 -19.658   1.705  1.00  0.00    +0.176 HD
ENDROOT
BRANCH   1   7
ATOM      7  O   UNL     1      16.126 -20.392  -0.096  1.00  0.00    -0.450 OA
BRANCH   7   8
ATOM      8  C   UNL     1      16.252 -20.837  -1.457  1.00  0.00    +0.231 C 
ATOM      9  C   UNL     1      14.958 -21.476  -1.922  1.00  0.00    +0.049 C 
ENDBRANCH   7   8
ENDBRANCH   1   7
BRANCH   4  10
ATOM     10  C   UNL     1      14.226 -17.618   2.976  1.00  0.00    +0.075 A 
ATOM     11  C   UNL     1      13.114 -16.785   3.367  1.00  0.00    +0.028 A 
ATOM     12  C   UNL     1      14.526 -18.523   3.989  1.00  0.00    +0.108 A 
ATOM     13  C   UNL     1      12.652 -17.070   4.633  1.00  0.00    +0.068 A 
ATOM     14  S   UNL     1      13.532 -18.336   5.353  1.00  0.00    -0.126 S 
BRANCH  12  15
ATOM     15  N   UNL     1      15.514 -19.494   3.953  1.00  0.00    -0.312 N 
ATOM     16  C   UNL     1      15.411 -20.832   4.279  1.00  0.00    +0.274 C 
ATOM     17  O   UNL     1      14.430 -21.442   4.685  1.00  0.00    -0.267 OA
ATOM     18  H   UNL     1      16.437 -19.189   3.627  1.00  0.00    +0.171 HD
BRANCH  16  19
ATOM     19  C   UNL     1      16.704 -21.572   4.092  1.00  0.00    +0.128 A 
ATOM     20  C   UNL     1      17.122 -22.506   5.033  1.00  0.00    +0.035 A 
ATOM     21  N   UNL     1      17.414 -21.269   2.969  1.00  0.00    -0.250 NA
ATOM     22  C   UNL     1      18.331 -23.170   4.816  1.00  0.00    +0.023 A 
ATOM     23  C   UNL     1      18.581 -21.932   2.788  1.00  0.00    +0.131 A 
ATOM     24  C   UNL     1      19.078 -22.880   3.672  1.00  0.00    +0.070 A 
ATOM     25  C   UNL     1      20.320 -23.536   3.411  1.00  0.00    +0.101 C 
ATOM     26  N   UNL     1      21.328 -24.069   3.200  1.00  0.00    -0.192 NA
ENDBRANCH  16  19
ENDBRANCH  12  15
ENDBRANCH   4  10
TORSDOF 5
ENDMDL
MODEL 4
REMARK VINA RESULT:    -7.655      3.638      5.735
REMARK INTER + INTRA:         -10.533
REMARK INTER:                  -9.629
REMARK INTRA:                  -0.904
REMARK UNBOUND:                -0.640
REMARK SMILES CCOC(=O)NC(=O)c1ccsc1NC(=O)c1ccc(C#N)cn1
REMARK SMILES IDX 4 1 5 2 6 3 7 4 8 5 3 7 2 8 1 9 9 10 10 11 13 12 11 13 12 14
REMARK SMILES IDX 14 15 15 16 16 17 17 19 18 20 24 21 19 22 23 23 20 24 21 25
REMARK SMILES IDX 22 26
REMARK H PARENT 6 6 14 18
ROOT
ATOM      1  C   UNL     1      15.690 -19.046   6.089  1.00  0.00    +0.414 C 
ATOM      2  O   UNL     1      15.975 -19.960   6.844  1.00  0.00    -0.224 OA
ATOM      3  N   UNL     1      15.898 -18.973   4.743  1.00  0.00    -0.257 N 
ATOM      4  C   UNL     1      16.332 -20.009   3.949  1.00  0.00    +0.263 C 
ATOM      5  O   UNL     1      16.595 -21.136   4.357  1.00  0.00    -0.269 OA
ATOM      6  H   UNL     1      15.583 -18.114   4.331  1.00  0.00    +0.176 HD
ENDROOT
BRANCH   1   7
ATOM      7  O   UNL     1      15.118 -17.876   6.484  1.00  0.00    -0.450 OA
BRANCH   7   8
ATOM      8  C   UNL     1      14.004 -17.427   5.695  1.00  0.00    +0.231 C 
ATOM      9  C   UNL     1      12.744 -18.170   6.097  1.00  0.00    +0.049 C 
ENDBRANCH   7   8
ENDBRANCH   1   7
BRANCH   4  10
ATOM     10  C   UNL     1      16.443 -19.679   2.517  1.00  0.00    +0.075 A 
ATOM     11  C   UNL     1      15.575 -18.827   1.739  1.00  0.00    +0.028 A 
ATOM     12  C   UNL     1      17.470 -20.173   1.719  1.00  0.00    +0.108 A 
ATOM     13  C   UNL     1      15.957 -18.738   0.419  1.00  0.00    +0.068 A 
ATOM     14  S   UNL     1      17.355 -19.657   0.105  1.00  0.00    -0.126 S 
BRANCH  12  15
ATOM     15  N   UNL     1      18.502 -20.999   2.132  1.00  0.00    -0.312 N 
ATOM     16  C   UNL     1      18.615 -22.367   1.982  1.00  0.00    +0.274 C 
ATOM     17  O   UNL     1      17.820 -23.144   1.467  1.00  0.00    -0.267 OA
ATOM     18  H   UNL     1      19.295 -20.540   2.594  1.00  0.00    +0.171 HD
BRANCH  16  19
ATOM     19  C   UNL     1      19.898 -22.905   2.548  1.00  0.00    +0.128 A 
ATOM     20  C   UNL     1      21.115 -22.593   1.952  1.00  0.00    +0.035 A 
ATOM     21  N   UNL     1      19.785 -23.696   3.651  1.00  0.00    -0.250 NA
ATOM     22  C   UNL     1      22.281 -23.116   2.514  1.00  0.00    +0.023 A 
ATOM     23  C   UNL     1      20.935 -24.185   4.173  1.00  0.00    +0.131 A 
ATOM     24  C   UNL     1      22.194 -23.928   3.647  1.00  0.00    +0.070 A 
ATOM     25  C   UNL     1      23.362 -24.482   4.254  1.00  0.00    +0.101 C 
ATOM     26  N   UNL     1      24.311 -24.933   4.745  1.00  0.00    -0.192 NA
ENDBRANCH  16  19
ENDBRANCH  12  15
ENDBRANCH   4  10
TORSDOF 5
ENDMDL
MODEL 5
REMARK VINA RESULT:    -7.638      2.823      4.799
REMARK INTER + INTRA:         -10.511
REMARK INTER:                  -9.981
REMARK INTRA:                  -0.531
REMARK UNBOUND:                -0.640
REMARK SMILES CCOC(=O)NC(=O)c1ccsc1NC(=O)c1ccc(C#N)cn1
REMARK SMILES IDX 4 1 5 2 6 3 7 4 8 5 3 7 2 8 1 9 9 10 10 11 13 12 11 13 12 14
REMARK SMILES IDX 14 15 15 16 16 17 17 19 18 20 24 21 19 22 23 23 20 24 21 25
REMARK SMILES IDX 22 26
REMARK H PARENT 6 6 14 18
ROOT
ATOM      1  C   UNL     1      14.057 -17.367   3.365  1.00  0.00    +0.414 C 
ATOM      2  O   UNL     1      14.094 -17.001   2.203  1.00  0.00    -0.224 OA
ATOM      3  N   UNL     1      14.631 -18.475   3.915  1.00  0.00    -0.257 N 
ATOM      4  C   UNL     1      15.511 -19.316   3.273  1.00  0.00    +0.263 C 
ATOM      5  O   UNL     1      15.888 -19.175   2.114  1.00  0.00    -0.269 OA
ATOM      6  H   UNL     1      14.460 -18.574   4.899  1.00  0.00    +0.176 HD
ENDROOT
BRANCH   1   7
ATOM      7  O   UNL     1      13.379 -16.719   4.352  1.00  0.00    -0.450 OA
BRANCH   7   8
ATOM      8  C   UNL     1      12.224 -17.401   4.868  1.00  0.00    +0.231 C 
ATOM      9  C   UNL     1      12.566 -18.099   6.170  1.00  0.00    +0.049 C 
ENDBRANCH   7   8
ENDBRANCH   1   7
BRANCH   4  10
ATOM     10  C   UNL     1      16.015 -20.425   4.102  1.00  0.00    +0.075 A 
ATOM     11  C   UNL     1      15.761 -20.665   5.503  1.00  0.00    +0.028 A 
ATOM     12  C   UNL     1      16.828 -21.429   3.585  1.00  0.00    +0.108 A 
ATOM     13  C   UNL     1      16.395 -21.792   5.976  1.00  0.00    +0.068 A 
ATOM     14  S   UNL     1      17.284 -22.573   4.753  1.00  0.00    -0.126 S 
BRANCH  12  15
ATOM     15  N   UNL     1      17.254 -21.540   2.272  1.00  0.00    -0.312 N 
ATOM     16  C   UNL     1      16.916 -22.502   1.340  1.00  0.00    +0.274 C 
ATOM     17  O   UNL     1      16.180 -23.472   1.482  1.00  0.00    -0.267 OA
ATOM     18  H   UNL     1      17.890 -20.808   1.937  1.00  0.00    +0.171 HD
BRANCH  16  19
ATOM     19  C   UNL     1      17.571 -22.272   0.009  1.00  0.00    +0.128 A 
ATOM     20  C   UNL     1      16.902 -22.589  -1.168  1.00  0.00    +0.035 A 
ATOM     21  N   UNL     1      18.828 -21.748   0.039  1.00  0.00    -0.250 NA
ATOM     22  C   UNL     1      17.551 -22.357  -2.382  1.00  0.00    +0.023 A 
ATOM     23  C   UNL     1      19.428 -21.533  -1.156  1.00  0.00    +0.131 A 
ATOM     24  C   UNL     1      18.839 -21.818  -2.380  1.00  0.00    +0.070 A 
ATOM     25  C   UNL     1      19.539 -21.564  -3.599  1.00  0.00    +0.101 C 
ATOM     26  N   UNL     1      20.107 -21.360  -4.589  1.00  0.00    -0.192 NA
ENDBRANCH  16  19
ENDBRANCH  12  15
ENDBRANCH   4  10
TORSDOF 5
ENDMDL
MODEL 6
REMARK VINA RESULT:    -7.594      3.628      7.647
REMARK INTER + INTRA:         -10.454
REMARK INTER:                  -9.527
REMARK INTRA:                  -0.927
REMARK UNBOUND:                -0.640
REMARK SMILES CCOC(=O)NC(=O)c1ccsc1NC(=O)c1ccc(C#N)cn1
REMARK SMILES IDX 4 1 5 2 6 3 7 4 8 5 3 7 2 8 1 9 9 10 10 11 13 12 11 13 12 14
REMARK SMILES IDX 14 15 15 16 16 17 17 19 18 20 24 21 19 22 23 23 20 24 21 25
REMARK SMILES IDX 22 26
REMARK H PARENT 6 6 14 18
ROOT
ATOM      1  C   UNL     1      17.842 -20.733  -1.549  1.00  0.00    +0.414 C 
ATOM      2  O   UNL     1      18.405 -19.675  -1.328  1.00  0.00    -0.224 OA
ATOM      3  N   UNL     1      17.977 -21.913  -0.877  1.00  0.00    -0.257 N 
ATOM      4  C   UNL     1      18.671 -22.082   0.299  1.00  0.00    +0.263 C 
ATOM      5  O   UNL     1      19.265 -21.187   0.891  1.00  0.00    -0.269 OA
ATOM      6  H   UNL     1      17.411 -22.655  -1.246  1.00  0.00    +0.176 HD
ENDROOT
BRANCH   1   7
ATOM      7  O   UNL     1      16.964 -20.937  -2.570  1.00  0.00    -0.450 OA
BRANCH   7   8
ATOM      8  C   UNL     1      16.041 -22.024  -2.394  1.00  0.00    +0.231 C 
ATOM      9  C   UNL     1      14.676 -21.493  -2.002  1.00  0.00    +0.049 C 
ENDBRANCH   7   8
ENDBRANCH   1   7
BRANCH   4  10
ATOM     10  C   UNL     1      18.636 -23.453   0.839  1.00  0.00    +0.075 A 
ATOM     11  C   UNL     1      19.329 -24.616   0.338  1.00  0.00    +0.028 A 
ATOM     12  C   UNL     1      17.896 -23.786   1.970  1.00  0.00    +0.108 A 
ATOM     13  C   UNL     1      19.069 -25.751   1.075  1.00  0.00    +0.068 A 
ATOM     14  S   UNL     1      18.011 -25.433   2.369  1.00  0.00    -0.126 S 
BRANCH  12  15
ATOM     15  N   UNL     1      17.129 -22.919   2.730  1.00  0.00    -0.312 N 
ATOM     16  C   UNL     1      17.464 -22.295   3.916  1.00  0.00    +0.274 C 
ATOM     17  O   UNL     1      18.504 -22.389   4.556  1.00  0.00    -0.267 OA
ATOM     18  H   UNL     1      16.198 -22.694   2.362  1.00  0.00    +0.171 HD
BRANCH  16  19
ATOM     19  C   UNL     1      16.368 -21.408   4.430  1.00  0.00    +0.128 A 
ATOM     20  C   UNL     1      15.702 -21.724   5.610  1.00  0.00    +0.035 A 
ATOM     21  N   UNL     1      16.082 -20.307   3.681  1.00  0.00    -0.250 NA
ATOM     22  C   UNL     1      14.690 -20.869   6.049  1.00  0.00    +0.023 A 
ATOM     23  C   UNL     1      15.097 -19.497   4.136  1.00  0.00    +0.131 A 
ATOM     24  C   UNL     1      14.379 -19.731   5.301  1.00  0.00    +0.070 A 
ATOM     25  C   UNL     1      13.351 -18.829   5.715  1.00  0.00    +0.101 C 
ATOM     26  N   UNL     1      12.516 -18.099   6.051  1.00  0.00    -0.192 NA
ENDBRANCH  16  19
ENDBRANCH  12  15
ENDBRANCH   4  10
TORSDOF 5
ENDMDL
MODEL 7
REMARK VINA RESULT:    -7.457      2.680      6.054
REMARK INTER + INTRA:         -10.277
REMARK INTER:                  -9.812
REMARK INTRA:                  -0.465
REMARK UNBOUND:                -0.640
REMARK SMILES CCOC(=O)NC(=O)c1ccsc1NC(=O)c1ccc(C#N)cn1
REMARK SMILES IDX 4 1 5 2 6 3 7 4 8 5 3 7 2 8 1 9 9 10 10 11 13 12 11 13 12 14
REMARK SMILES IDX 14 15 15 16 16 17 17 19 18 20 24 21 19 22 23 23 20 24 21 25
REMARK SMILES IDX 22 26
REMARK H PARENT 6 6 14 18
ROOT
ATOM      1  C   UNL     1      17.871 -22.338   3.919  1.00  0.00    +0.414 C 
ATOM      2  O   UNL     1      18.897 -22.420   4.572  1.00  0.00    -0.224 OA
ATOM      3  N   UNL     1      17.745 -22.165   2.572  1.00  0.00    -0.257 N 
ATOM      4  C   UNL     1      18.778 -22.214   1.664  1.00  0.00    +0.263 C 
ATOM      5  O   UNL     1      19.952 -22.415   1.957  1.00  0.00    -0.269 OA
ATOM      6  H   UNL     1      16.793 -22.121   2.257  1.00  0.00    +0.176 HD
ENDROOT
BRANCH   1   7
ATOM      7  O   UNL     1      16.619 -22.375   4.451  1.00  0.00    -0.450 OA
BRANCH   7   8
ATOM      8  C   UNL     1      16.420 -21.589   5.638  1.00  0.00    +0.231 C 
ATOM      9  C   UNL     1      15.002 -21.760   6.148  1.00  0.00    +0.049 C 
ENDBRANCH   7   8
ENDBRANCH   1   7
BRANCH   4  10
ATOM     10  C   UNL     1      18.369 -22.029   0.260  1.00  0.00    +0.075 A 
ATOM     11  C   UNL     1      18.897 -22.696  -0.906  1.00  0.00    +0.028 A 
ATOM     12  C   UNL     1      17.357 -21.149  -0.109  1.00  0.00    +0.108 A 
ATOM     13  C   UNL     1      18.297 -22.283  -2.075  1.00  0.00    +0.068 A 
ATOM     14  S   UNL     1      17.097 -21.111  -1.786  1.00  0.00    -0.126 S 
BRANCH  12  15
ATOM     15  N   UNL     1      16.606 -20.361   0.748  1.00  0.00    -0.312 N 
ATOM     16  C   UNL     1      16.443 -18.990   0.727  1.00  0.00    +0.274 C 
ATOM     17  O   UNL     1      16.941 -18.177  -0.043  1.00  0.00    -0.267 OA
ATOM     18  H   UNL     1      16.089 -20.854   1.484  1.00  0.00    +0.171 HD
BRANCH  16  19
ATOM     19  C   UNL     1      15.532 -18.500   1.815  1.00  0.00    +0.128 A 
ATOM     20  C   UNL     1      15.419 -19.206   3.008  1.00  0.00    +0.035 A 
ATOM     21  N   UNL     1      14.846 -17.352   1.556  1.00  0.00    -0.250 NA
ATOM     22  C   UNL     1      14.559 -18.712   3.991  1.00  0.00    +0.023 A 
ATOM     23  C   UNL     1      14.023 -16.899   2.531  1.00  0.00    +0.131 A 
ATOM     24  C   UNL     1      13.846 -17.536   3.752  1.00  0.00    +0.070 A 
ATOM     25  C   UNL     1      12.957 -16.995   4.730  1.00  0.00    +0.101 C 
ATOM     26  N   UNL     1      12.234 -16.558   5.525  1.00  0.00    -0.192 NA
ENDBRANCH  16  19
ENDBRANCH  12  15
ENDBRANCH   4  10
TORSDOF 5
ENDMDL
MODEL 8
REMARK VINA RESULT:    -7.336      3.065      6.456
REMARK INTER + INTRA:         -10.121
REMARK INTER:                  -9.424
REMARK INTRA:                  -0.697
REMARK UNBOUND:                -0.640
REMARK SMILES CCOC(=O)NC(=O)c1ccsc1NC(=O)c1ccc(C#N)cn1
REMARK SMILES IDX 4 1 5 2 6 3 7 4 8 5 3 7 2 8 1 9 9 10 10 11 13 12 11 13 12 14
REMARK SMILES IDX 14 15 15 16 16 17 17 19 18 20 24 21 19 22 23 23 20 24 21 25
REMARK SMILES IDX 22 26
REMARK H PARENT 6 6 14 18
ROOT
ATOM      1  C   UNL     1      19.253 -23.950   2.558  1.00  0.00    +0.414 C 
ATOM      2  O   UNL     1      19.724 -23.444   3.561  1.00  0.00    -0.224 OA
ATOM      3  N   UNL     1      18.885 -23.330   1.400  1.00  0.00    -0.257 N 
ATOM      4  C   UNL     1      19.135 -22.013   1.088  1.00  0.00    +0.263 C 
ATOM      5  O   UNL     1      19.719 -21.224   1.823  1.00  0.00    -0.269 OA
ATOM      6  H   UNL     1      18.513 -23.954   0.707  1.00  0.00    +0.176 HD
ENDROOT
BRANCH   1   7
ATOM      7  O   UNL     1      18.969 -25.275   2.426  1.00  0.00    -0.450 OA
BRANCH   7   8
ATOM      8  C   UNL     1      18.870 -25.762   1.078  1.00  0.00    +0.231 C 
ATOM      9  C   UNL     1      17.743 -26.772   0.968  1.00  0.00    +0.049 C 
ENDBRANCH   7   8
ENDBRANCH   1   7
BRANCH   4  10
ATOM     10  C   UNL     1      18.662 -21.598  -0.244  1.00  0.00    +0.075 A 
ATOM     11  C   UNL     1      19.183 -22.000  -1.529  1.00  0.00    +0.028 A 
ATOM     12  C   UNL     1      17.585 -20.732  -0.414  1.00  0.00    +0.108 A 
ATOM     13  C   UNL     1      18.514 -21.417  -2.583  1.00  0.00    +0.068 A 
ATOM     14  S   UNL     1      17.259 -20.400  -2.046  1.00  0.00    -0.126 S 
BRANCH  12  15
ATOM     15  N   UNL     1      16.823 -20.168   0.596  1.00  0.00    -0.312 N 
ATOM     16  C   UNL     1      16.422 -18.854   0.732  1.00  0.00    +0.274 C 
ATOM     17  O   UNL     1      16.668 -17.904  -0.001  1.00  0.00    -0.267 OA
ATOM     18  H   UNL     1      16.498 -20.806   1.331  1.00  0.00    +0.171 HD
BRANCH  16  19
ATOM     19  C   UNL     1      15.584 -18.631   1.958  1.00  0.00    +0.128 A 
ATOM     20  C   UNL     1      14.657 -17.595   1.998  1.00  0.00    +0.035 A 
ATOM     21  N   UNL     1      15.793 -19.489   2.995  1.00  0.00    -0.250 NA
ATOM     22  C   UNL     1      13.901 -17.427   3.159  1.00  0.00    +0.023 A 
ATOM     23  C   UNL     1      15.041 -19.300   4.105  1.00  0.00    +0.131 A 
ATOM     24  C   UNL     1      14.093 -18.295   4.235  1.00  0.00    +0.070 A 
ATOM     25  C   UNL     1      13.339 -18.159   5.442  1.00  0.00    +0.101 C 
ATOM     26  N   UNL     1      12.728 -18.047   6.421  1.00  0.00    -0.192 NA
ENDBRANCH  16  19
ENDBRANCH  12  15
ENDBRANCH   4  10
TORSDOF 5
ENDMDL
MODEL 9
REMARK VINA RESULT:    -7.335      3.846      7.866
REMARK INTER + INTRA:         -10.119
REMARK INTER:                  -9.274
REMARK INTRA:                  -0.845
REMARK UNBOUND:                -0.640
REMARK SMILES CCOC(=O)NC(=O)c1ccsc1NC(=O)c1ccc(C#N)cn1
REMARK SMILES IDX 4 1 5 2 6 3 7 4 8 5 3 7 2 8 1 9 9 10 10 11 13 12 11 13 12 14
REMARK SMILES IDX 14 15 15 16 16 17 17 19 18 20 24 21 19 22 23 23 20 24 21 25
REMARK SMILES IDX 22 26
REMARK H PARENT 6 6 14 18
ROOT
ATOM      1  C   UNL     1      18.779 -21.459  -2.125  1.00  0.00    +0.414 C 
ATOM      2  O   UNL     1      18.227 -20.374  -2.170  1.00  0.00    -0.224 OA
ATOM      3  N   UNL     1      19.316 -22.082  -1.037  1.00  0.00    -0.257 N 
ATOM      4  C   UNL     1      19.186 -21.659   0.266  1.00  0.00    +0.263 C 
ATOM      5  O   UNL     1      18.571 -20.657   0.614  1.00  0.00    -0.269 OA
ATOM      6  H   UNL     1      19.727 -22.975  -1.243  1.00  0.00    +0.176 HD
ENDROOT
BRANCH   1   7
ATOM      7  O   UNL     1      18.993 -22.258  -3.206  1.00  0.00    -0.450 OA
BRANCH   7   8
ATOM      8  C   UNL     1      20.303 -22.179  -3.793  1.00  0.00    +0.231 C 
ATOM      9  C   UNL     1      20.245 -21.415  -5.102  1.00  0.00    +0.049 C 
ENDBRANCH   7   8
ENDBRANCH   1   7
BRANCH   4  10
ATOM     10  C   UNL     1      19.835 -22.532   1.262  1.00  0.00    +0.075 A 
ATOM     11  C   UNL     1      21.011 -23.350   1.084  1.00  0.00    +0.028 A 
ATOM     12  C   UNL     1      19.360 -22.653   2.564  1.00  0.00    +0.108 A 
ATOM     13  C   UNL     1      21.348 -24.054   2.218  1.00  0.00    +0.068 A 
ATOM     14  S   UNL     1      20.275 -23.734   3.500  1.00  0.00    -0.126 S 
BRANCH  12  15
ATOM     15  N   UNL     1      18.266 -21.993   3.100  1.00  0.00    -0.312 N 
ATOM     16  C   UNL     1      16.928 -22.312   2.974  1.00  0.00    +0.274 C 
ATOM     17  O   UNL     1      16.423 -23.235   2.347  1.00  0.00    -0.267 OA
ATOM     18  H   UNL     1      18.470 -21.172   3.680  1.00  0.00    +0.171 HD
BRANCH  16  19
ATOM     19  C   UNL     1      16.037 -21.363   3.721  1.00  0.00    +0.128 A 
ATOM     20  C   UNL     1      15.121 -21.843   4.652  1.00  0.00    +0.035 A 
ATOM     21  N   UNL     1      16.185 -20.040   3.429  1.00  0.00    -0.250 NA
ATOM     22  C   UNL     1      14.314 -20.923   5.323  1.00  0.00    +0.023 A 
ATOM     23  C   UNL     1      15.387 -19.174   4.099  1.00  0.00    +0.131 A 
ATOM     24  C   UNL     1      14.447 -19.561   5.044  1.00  0.00    +0.070 A 
ATOM     25  C   UNL     1      13.642 -18.586   5.708  1.00  0.00    +0.101 C 
ATOM     26  N   UNL     1      12.986 -17.795   6.247  1.00  0.00    -0.192 NA
ENDBRANCH  16  19
ENDBRANCH  12  15
ENDBRANCH   4  10
TORSDOF 5
ENDMDL
