MODEL 1
REMARK VINA RESULT:    -8.258      0.000      0.000
REMARK INTER + INTRA:         -11.257
REMARK INTER:                 -10.189
REMARK INTRA:                  -1.068
REMARK UNBOUND:                -1.068
REMARK SMILES CC1(c2ccc(C#N)cc2)NC(=O)N(CC(=O)c2cccnc2)C1=O
REMARK SMILES IDX 15 1 14 2 2 3 11 4 24 5 12 6 25 7 13 8 1 9 3 11 4 12 10 13
REMARK SMILES IDX 5 14 9 15 6 16 7 17 8 18 16 19 17 20 18 21 19 22 23 23 20 24
REMARK SMILES IDX 22 25 21 26
REMARK H PARENT 11 10
ROOT
ATOM      1  C   UNL     1      19.011 -23.140  -0.468  1.00  0.00    +0.211 C 
ENDROOT
BRANCH   1   2
ATOM      2  N   UNL     1      18.134 -23.160   0.680  1.00  0.00    -0.254 N 
ATOM      3  C   UNL     1      17.302 -22.908   2.886  1.00  0.00    +0.144 C 
ATOM      4  N   UNL     1      16.530 -23.820   2.064  1.00  0.00    -0.319 N 
ATOM      5  C   UNL     1      18.360 -22.475   1.840  1.00  0.00    +0.261 C 
ATOM      6  C   UNL     1      17.082 -24.005   0.821  1.00  0.00    +0.325 C 
ATOM      7  O   UNL     1      19.270 -21.673   2.022  1.00  0.00    -0.271 OA
ATOM      8  O   UNL     1      16.668 -24.811   0.003  1.00  0.00    -0.248 OA
ATOM      9  C   UNL     1      17.990 -23.690   4.010  1.00  0.00    +0.051 C 
ATOM     10  H   UNL     1      15.818 -24.450   2.404  1.00  0.00    +0.166 HD
BRANCH   3  11
ATOM     11  C   UNL     1      16.480 -21.730   3.406  1.00  0.00    -0.013 A 
ATOM     12  C   UNL     1      15.697 -21.876   4.567  1.00  0.00    +0.008 A 
ATOM     13  C   UNL     1      16.466 -20.480   2.761  1.00  0.00    +0.008 A 
ATOM     14  C   UNL     1      14.929 -20.817   5.064  1.00  0.00    +0.020 A 
ATOM     15  C   UNL     1      15.697 -19.420   3.256  1.00  0.00    +0.020 A 
ATOM     16  C   UNL     1      14.926 -19.585   4.408  1.00  0.00    +0.052 A 
ATOM     17  C   UNL     1      14.141 -18.499   4.914  1.00  0.00    +0.099 C 
ATOM     18  N   UNL     1      13.505 -17.617   5.322  1.00  0.00    -0.192 NA
ENDBRANCH   3  11
ENDBRANCH   1   2
BRANCH   1  19
ATOM     19  C   UNL     1      18.331 -22.375  -1.601  1.00  0.00    +0.184 C 
ATOM     20  O   UNL     1      18.430 -22.708  -2.782  1.00  0.00    -0.292 OA
BRANCH  19  21
ATOM     21  C   UNL     1      17.526 -21.172  -1.259  1.00  0.00    +0.038 A 
ATOM     22  C   UNL     1      18.176 -19.983  -0.913  1.00  0.00    +0.015 A 
ATOM     23  C   UNL     1      16.138 -21.166  -1.260  1.00  0.00    +0.122 A 
ATOM     24  C   UNL     1      17.428 -18.853  -0.591  1.00  0.00    +0.021 A 
ATOM     25  N   UNL     1      15.385 -20.082  -0.951  1.00  0.00    -0.264 NA
ATOM     26  C   UNL     1      16.047 -18.950  -0.624  1.00  0.00    +0.111 A 
ENDBRANCH  19  21
ENDBRANCH   1  19
TORSDOF 4
ENDMDL
MODEL 2
REMARK VINA RESULT:    -7.835      2.353      6.253
REMARK INTER + INTRA:         -10.735
REMARK INTER:                  -9.907
REMARK INTRA:                  -0.827
REMARK UNBOUND:                -1.068
REMARK SMILES CC1(c2ccc(C#N)cc2)NC(=O)N(CC(=O)c2cccnc2)C1=O
REMARK SMILES IDX 15 1 14 2 2 3 11 4 24 5 12 6 25 7 13 8 1 9 3 11 4 12 10 13
REMARK SMILES IDX 5 14 9 15 6 16 7 17 8 18 16 19 17 20 18 21 19 22 23 23 20 24
REMARK SMILES IDX 22 25 21 26
REMARK H PARENT 11 10
ROOT
ATOM      1  C   UNL     1      16.878 -19.174   2.048  1.00  0.00    +0.211 C 
ENDROOT
BRANCH   1   2
ATOM      2  N   UNL     1      17.096 -20.219   1.075  1.00  0.00    -0.254 N 
ATOM      3  C   UNL     1      18.133 -21.919  -0.213  1.00  0.00    +0.144 C 
ATOM      4  N   UNL     1      16.922 -21.383  -0.806  1.00  0.00    -0.319 N 
ATOM      5  C   UNL     1      18.152 -21.087   1.094  1.00  0.00    +0.261 C 
ATOM      6  C   UNL     1      16.391 -20.348  -0.077  1.00  0.00    +0.325 C 
ATOM      7  O   UNL     1      18.987 -21.165   1.988  1.00  0.00    -0.271 OA
ATOM      8  O   UNL     1      15.441 -19.674  -0.440  1.00  0.00    -0.248 OA
ATOM      9  C   UNL     1      19.338 -21.535  -1.077  1.00  0.00    +0.051 C 
ATOM     10  H   UNL     1      16.615 -21.549  -1.754  1.00  0.00    +0.166 HD
BRANCH   3  11
ATOM     11  C   UNL     1      18.054 -23.421   0.053  1.00  0.00    -0.013 A 
ATOM     12  C   UNL     1      16.802 -24.061   0.116  1.00  0.00    +0.008 A 
ATOM     13  C   UNL     1      19.202 -24.211   0.247  1.00  0.00    +0.008 A 
ATOM     14  C   UNL     1      16.698 -25.433   0.364  1.00  0.00    +0.020 A 
ATOM     15  C   UNL     1      19.100 -25.585   0.497  1.00  0.00    +0.020 A 
ATOM     16  C   UNL     1      17.848 -26.200   0.556  1.00  0.00    +0.052 A 
ATOM     17  C   UNL     1      17.745 -27.606   0.810  1.00  0.00    +0.099 C 
ATOM     18  N   UNL     1      17.665 -28.746   1.018  1.00  0.00    -0.192 NA
ENDBRANCH   3  11
ENDBRANCH   1   2
BRANCH   1  19
ATOM     19  C   UNL     1      15.890 -19.672   3.101  1.00  0.00    +0.184 C 
ATOM     20  O   UNL     1      15.956 -20.797   3.596  1.00  0.00    -0.292 OA
BRANCH  19  21
ATOM     21  C   UNL     1      14.799 -18.759   3.535  1.00  0.00    +0.038 A 
ATOM     22  C   UNL     1      14.243 -18.907   4.810  1.00  0.00    +0.015 A 
ATOM     23  C   UNL     1      14.289 -17.753   2.726  1.00  0.00    +0.122 A 
ATOM     24  C   UNL     1      13.220 -18.056   5.221  1.00  0.00    +0.021 A 
ATOM     25  N   UNL     1      13.295 -16.911   3.100  1.00  0.00    -0.264 NA
ATOM     26  C   UNL     1      12.782 -17.082   4.339  1.00  0.00    +0.111 A 
ENDBRANCH  19  21
ENDBRANCH   1  19
TORSDOF 4
ENDMDL
MODEL 3
REMARK VINA RESULT:    -7.353      2.341      6.558
REMARK INTER + INTRA:         -10.140
REMARK INTER:                  -9.385
REMARK INTRA:                  -0.755
REMARK UNBOUND:                -1.068
REMARK SMILES CC1(c2ccc(C#N)cc2)NC(=O)N(CC(=O)c2cccnc2)C1=O
REMARK SMILES IDX 15 1 14 2 2 3 11 4 24 5 12 6 25 7 13 8 1 9 3 11 4 12 10 13
REMARK SMILES IDX 5 14 9 15 6 16 7 17 8 18 16 19 17 20 18 21 19 22 23 23 20 24
REMARK SMILES IDX 22 25 21 26
REMARK H PARENT 11 10
ROOT
ATOM      1  C   UNL     1      16.829 -20.738   4.259  1.00  0.00    +0.211 C 
ENDROOT
BRANCH   1   2
ATOM      2  N   UNL     1      17.209 -21.681   3.234  1.00  0.00    -0.254 N 
ATOM      3  C   UNL     1      17.352 -22.819   1.158  1.00  0.00    +0.144 C 
ATOM      4  N   UNL     1      17.844 -23.585   2.288  1.00  0.00    -0.319 N 
ATOM      5  C   UNL     1      16.973 -21.512   1.898  1.00  0.00    +0.261 C 
ATOM      6  C   UNL     1      17.674 -22.931   3.483  1.00  0.00    +0.325 C 
ATOM      7  O   UNL     1      16.511 -20.499   1.385  1.00  0.00    -0.271 OA
ATOM      8  O   UNL     1      17.909 -23.427   4.572  1.00  0.00    -0.248 OA
ATOM      9  C   UNL     1      16.083 -23.476   0.607  1.00  0.00    +0.051 C 
ATOM     10  H   UNL     1      18.058 -24.572   2.273  1.00  0.00    +0.166 HD
BRANCH   3  11
ATOM     11  C   UNL     1      18.413 -22.594   0.082  1.00  0.00    -0.013 A 
ATOM     12  C   UNL     1      18.040 -22.100  -1.182  1.00  0.00    +0.008 A 
ATOM     13  C   UNL     1      19.775 -22.868   0.301  1.00  0.00    +0.008 A 
ATOM     14  C   UNL     1      18.988 -21.889  -2.189  1.00  0.00    +0.020 A 
ATOM     15  C   UNL     1      20.725 -22.659  -0.707  1.00  0.00    +0.020 A 
ATOM     16  C   UNL     1      20.335 -22.169  -1.954  1.00  0.00    +0.052 A 
ATOM     17  C   UNL     1      21.308 -21.954  -2.983  1.00  0.00    +0.099 C 
ATOM     18  N   UNL     1      22.099 -21.782  -3.816  1.00  0.00    -0.192 NA
ENDBRANCH   3  11
ENDBRANCH   1   2
BRANCH   1  19
ATOM     19  C   UNL     1      15.328 -20.858   4.515  1.00  0.00    +0.184 C 
ATOM     20  O   UNL     1      14.761 -21.942   4.655  1.00  0.00    -0.292 OA
BRANCH  19  21
ATOM     21  C   UNL     1      14.520 -19.611   4.586  1.00  0.00    +0.038 A 
ATOM     22  C   UNL     1      13.651 -19.413   5.664  1.00  0.00    +0.015 A 
ATOM     23  C   UNL     1      14.579 -18.616   3.619  1.00  0.00    +0.122 A 
ATOM     24  C   UNL     1      12.891 -18.247   5.735  1.00  0.00    +0.021 A 
ATOM     25  N   UNL     1      13.852 -17.473   3.663  1.00  0.00    -0.264 NA
ATOM     26  C   UNL     1      13.024 -17.315   4.720  1.00  0.00    +0.111 A 
ENDBRANCH  19  21
ENDBRANCH   1  19
TORSDOF 4
ENDMDL
MODEL 4
REMARK VINA RESULT:    -7.321      2.106      2.996
REMARK INTER + INTRA:         -10.100
REMARK INTER:                  -9.872
REMARK INTRA:                  -0.228
REMARK UNBOUND:                -1.068
REMARK SMILES CC1(c2ccc(C#N)cc2)NC(=O)N(CC(=O)c2cccnc2)C1=O
REMARK SMILES IDX 15 1 14 2 2 3 11 4 24 5 12 6 25 7 13 8 1 9 3 11 4 12 10 13
REMARK SMILES IDX 5 14 9 15 6 16 7 17 8 18 16 19 17 20 18 21 19 22 23 23 20 24
REMARK SMILES IDX 22 25 21 26
REMARK H PARENT 11 10
ROOT
ATOM      1  C   UNL     1      17.856 -21.895  -0.832  1.00  0.00    +0.211 C 
ENDROOT
BRANCH   1   2
ATOM      2  N   UNL     1      17.329 -22.180   0.482  1.00  0.00    -0.254 N 
ATOM      3  C   UNL     1      17.036 -22.211   2.835  1.00  0.00    +0.144 C 
ATOM      4  N   UNL     1      16.353 -23.285   2.141  1.00  0.00    -0.319 N 
ATOM      5  C   UNL     1      17.647 -21.481   1.613  1.00  0.00    +0.261 C 
ATOM      6  C   UNL     1      16.607 -23.286   0.791  1.00  0.00    +0.325 C 
ATOM      7  O   UNL     1      18.329 -20.462   1.646  1.00  0.00    -0.271 OA
ATOM      8  O   UNL     1      16.232 -24.159   0.027  1.00  0.00    -0.248 OA
ATOM      9  C   UNL     1      18.163 -22.792   3.695  1.00  0.00    +0.051 C 
ATOM     10  H   UNL     1      15.940 -24.095   2.582  1.00  0.00    +0.166 HD
BRANCH   3  11
ATOM     11  C   UNL     1      16.088 -21.318   3.634  1.00  0.00    -0.013 A 
ATOM     12  C   UNL     1      15.852 -19.993   3.220  1.00  0.00    +0.008 A 
ATOM     13  C   UNL     1      15.428 -21.767   4.792  1.00  0.00    +0.008 A 
ATOM     14  C   UNL     1      14.994 -19.149   3.934  1.00  0.00    +0.020 A 
ATOM     15  C   UNL     1      14.570 -20.925   5.509  1.00  0.00    +0.020 A 
ATOM     16  C   UNL     1      14.350 -19.614   5.082  1.00  0.00    +0.052 A 
ATOM     17  C   UNL     1      13.470 -18.753   5.816  1.00  0.00    +0.099 C 
ATOM     18  N   UNL     1      12.758 -18.057   6.413  1.00  0.00    -0.192 NA
ENDBRANCH   3  11
ENDBRANCH   1   2
BRANCH   1  19
ATOM     19  C   UNL     1      19.224 -22.558  -0.976  1.00  0.00    +0.184 C 
ATOM     20  O   UNL     1      19.679 -23.335  -0.136  1.00  0.00    -0.292 OA
BRANCH  19  21
ATOM     21  C   UNL     1      20.041 -22.240  -2.177  1.00  0.00    +0.038 A 
ATOM     22  C   UNL     1      21.411 -22.523  -2.173  1.00  0.00    +0.015 A 
ATOM     23  C   UNL     1      19.510 -21.661  -3.321  1.00  0.00    +0.122 A 
ATOM     24  C   UNL     1      22.182 -22.226  -3.294  1.00  0.00    +0.021 A 
ATOM     25  N   UNL     1      20.236 -21.362  -4.426  1.00  0.00    -0.264 NA
ATOM     26  C   UNL     1      21.556 -21.651  -4.387  1.00  0.00    +0.111 A 
ENDBRANCH  19  21
ENDBRANCH   1  19
TORSDOF 4
ENDMDL
MODEL 5
REMARK VINA RESULT:    -7.303      3.373      4.572
REMARK INTER + INTRA:         -10.079
REMARK INTER:                  -9.259
REMARK INTRA:                  -0.820
REMARK UNBOUND:                -1.068
REMARK SMILES CC1(c2ccc(C#N)cc2)NC(=O)N(CC(=O)c2cccnc2)C1=O
REMARK SMILES IDX 15 1 14 2 2 3 11 4 24 5 12 6 25 7 13 8 1 9 3 11 4 12 10 13
REMARK SMILES IDX 5 14 9 15 6 16 7 17 8 18 16 19 17 20 18 21 19 22 23 23 20 24
REMARK SMILES IDX 22 25 21 26
REMARK H PARENT 11 10
ROOT
ATOM      1  C   UNL     1      20.497 -21.574  -2.394  1.00  0.00    +0.211 C 
ENDROOT
BRANCH   1   2
ATOM      2  N   UNL     1      19.191 -21.539  -1.779  1.00  0.00    -0.254 N 
ATOM      3  C   UNL     1      17.321 -22.084  -0.426  1.00  0.00    +0.144 C 
ATOM      4  N   UNL     1      17.010 -21.207  -1.539  1.00  0.00    -0.319 N 
ATOM      5  C   UNL     1      18.847 -22.228  -0.650  1.00  0.00    +0.261 C 
ATOM      6  C   UNL     1      18.095 -20.975  -2.347  1.00  0.00    +0.325 C 
ATOM      7  O   UNL     1      19.622 -22.873   0.048  1.00  0.00    -0.271 OA
ATOM      8  O   UNL     1      18.044 -20.361  -3.400  1.00  0.00    -0.248 OA
ATOM      9  C   UNL     1      16.646 -23.442  -0.642  1.00  0.00    +0.051 C 
ATOM     10  H   UNL     1      16.079 -20.977  -1.858  1.00  0.00    +0.166 HD
BRANCH   3  11
ATOM     11  C   UNL     1      16.985 -21.469   0.931  1.00  0.00    -0.013 A 
ATOM     12  C   UNL     1      16.816 -22.296   2.057  1.00  0.00    +0.008 A 
ATOM     13  C   UNL     1      16.829 -20.082   1.110  1.00  0.00    +0.008 A 
ATOM     14  C   UNL     1      16.503 -21.763   3.312  1.00  0.00    +0.020 A 
ATOM     15  C   UNL     1      16.515 -19.546   2.365  1.00  0.00    +0.020 A 
ATOM     16  C   UNL     1      16.350 -20.385   3.469  1.00  0.00    +0.052 A 
ATOM     17  C   UNL     1      16.030 -19.834   4.753  1.00  0.00    +0.099 C 
ATOM     18  N   UNL     1      15.768 -19.386   5.792  1.00  0.00    -0.192 NA
ENDBRANCH   3  11
ENDBRANCH   1   2
BRANCH   1  19
ATOM     19  C   UNL     1      20.524 -22.679  -3.447  1.00  0.00    +0.184 C 
ATOM     20  O   UNL     1      20.375 -23.869  -3.167  1.00  0.00    -0.292 OA
BRANCH  19  21
ATOM     21  C   UNL     1      20.751 -22.299  -4.867  1.00  0.00    +0.038 A 
ATOM     22  C   UNL     1      20.230 -23.101  -5.887  1.00  0.00    +0.015 A 
ATOM     23  C   UNL     1      21.471 -21.173  -5.241  1.00  0.00    +0.122 A 
ATOM     24  C   UNL     1      20.441 -22.750  -7.219  1.00  0.00    +0.021 A 
ATOM     25  N   UNL     1      21.691 -20.808  -6.528  1.00  0.00    -0.264 NA
ATOM     26  C   UNL     1      21.171 -21.605  -7.488  1.00  0.00    +0.111 A 
ENDBRANCH  19  21
ENDBRANCH   1  19
TORSDOF 4
ENDMDL
MODEL 6
REMARK VINA RESULT:    -7.294      2.616      6.997
REMARK INTER + INTRA:         -10.068
REMARK INTER:                  -9.361
REMARK INTRA:                  -0.707
REMARK UNBOUND:                -1.068
REMARK SMILES CC1(c2ccc(C#N)cc2)NC(=O)N(CC(=O)c2cccnc2)C1=O
REMARK SMILES IDX 15 1 14 2 2 3 11 4 24 5 12 6 25 7 13 8 1 9 3 11 4 12 10 13
REMARK SMILES IDX 5 14 9 15 6 16 7 17 8 18 16 19 17 20 18 21 19 22 23 23 20 24
REMARK SMILES IDX 22 25 21 26
REMARK H PARENT 11 10
ROOT
ATOM      1  C   UNL     1      16.842 -19.328   2.442  1.00  0.00    +0.211 C 
ENDROOT
BRANCH   1   2
ATOM      2  N   UNL     1      17.034 -20.386   1.478  1.00  0.00    -0.254 N 
ATOM      3  C   UNL     1      17.222 -21.558  -0.575  1.00  0.00    +0.144 C 
ATOM      4  N   UNL     1      17.003 -22.413   0.576  1.00  0.00    -0.319 N 
ATOM      5  C   UNL     1      17.267 -20.187   0.146  1.00  0.00    +0.261 C 
ATOM      6  C   UNL     1      16.820 -21.701   1.735  1.00  0.00    +0.325 C 
ATOM      7  O   UNL     1      17.451 -19.097  -0.385  1.00  0.00    -0.271 OA
ATOM      8  O   UNL     1      16.511 -22.203   2.803  1.00  0.00    -0.248 OA
ATOM      9  C   UNL     1      15.995 -21.610  -1.491  1.00  0.00    +0.051 C 
ATOM     10  H   UNL     1      16.761 -23.393   0.537  1.00  0.00    +0.166 HD
BRANCH   3  11
ATOM     11  C   UNL     1      18.521 -21.871  -1.315  1.00  0.00    -0.013 A 
ATOM     12  C   UNL     1      18.628 -21.612  -2.694  1.00  0.00    +0.008 A 
ATOM     13  C   UNL     1      19.640 -22.425  -0.666  1.00  0.00    +0.008 A 
ATOM     14  C   UNL     1      19.802 -21.894  -3.399  1.00  0.00    +0.020 A 
ATOM     15  C   UNL     1      20.817 -22.708  -1.370  1.00  0.00    +0.020 A 
ATOM     16  C   UNL     1      20.901 -22.444  -2.738  1.00  0.00    +0.052 A 
ATOM     17  C   UNL     1      22.107 -22.734  -3.457  1.00  0.00    +0.099 C 
ATOM     18  N   UNL     1      23.084 -22.971  -4.037  1.00  0.00    -0.192 NA
ENDBRANCH   3  11
ENDBRANCH   1   2
BRANCH   1  19
ATOM     19  C   UNL     1      15.387 -18.868   2.394  1.00  0.00    +0.184 C 
ATOM     20  O   UNL     1      14.827 -18.536   1.348  1.00  0.00    -0.292 OA
BRANCH  19  21
ATOM     21  C   UNL     1      14.621 -18.807   3.668  1.00  0.00    +0.038 A 
ATOM     22  C   UNL     1      13.874 -17.664   3.969  1.00  0.00    +0.015 A 
ATOM     23  C   UNL     1      14.612 -19.842   4.594  1.00  0.00    +0.122 A 
ATOM     24  C   UNL     1      13.156 -17.602   5.162  1.00  0.00    +0.021 A 
ATOM     25  N   UNL     1      13.923 -19.808   5.760  1.00  0.00    -0.264 NA
ATOM     26  C   UNL     1      13.211 -18.689   6.018  1.00  0.00    +0.111 A 
ENDBRANCH  19  21
ENDBRANCH   1  19
TORSDOF 4
ENDMDL
MODEL 7
REMARK VINA RESULT:    -7.241      2.483      4.047
REMARK INTER + INTRA:         -10.002
REMARK INTER:                  -9.087
REMARK INTRA:                  -0.915
REMARK UNBOUND:                -1.068
REMARK SMILES CC1(c2ccc(C#N)cc2)NC(=O)N(CC(=O)c2cccnc2)C1=O
REMARK SMILES IDX 15 1 14 2 2 3 11 4 24 5 12 6 25 7 13 8 1 9 3 11 4 12 10 13
REMARK SMILES IDX 5 14 9 15 6 16 7 17 8 18 16 19 17 20 18 21 19 22 23 23 20 24
REMARK SMILES IDX 22 25 21 26
REMARK H PARENT 11 10
ROOT
ATOM      1  C   UNL     1      18.009 -25.364   2.757  1.00  0.00    +0.211 C 
ENDROOT
BRANCH   1   2
ATOM      2  N   UNL     1      17.957 -23.953   3.057  1.00  0.00    -0.254 N 
ATOM      3  C   UNL     1      17.460 -21.637   2.929  1.00  0.00    +0.144 C 
ATOM      4  N   UNL     1      18.587 -21.954   3.786  1.00  0.00    -0.319 N 
ATOM      5  C   UNL     1      17.068 -23.075   2.503  1.00  0.00    +0.261 C 
ATOM      6  C   UNL     1      18.898 -23.291   3.776  1.00  0.00    +0.325 C 
ATOM      7  O   UNL     1      16.136 -23.382   1.769  1.00  0.00    -0.271 OA
ATOM      8  O   UNL     1      19.874 -23.769   4.332  1.00  0.00    -0.248 OA
ATOM      9  C   UNL     1      17.951 -20.861   1.704  1.00  0.00    +0.051 C 
ATOM     10  H   UNL     1      19.241 -21.281   4.161  1.00  0.00    +0.166 HD
BRANCH   3  11
ATOM     11  C   UNL     1      16.331 -20.920   3.667  1.00  0.00    -0.013 A 
ATOM     12  C   UNL     1      15.914 -19.643   3.246  1.00  0.00    +0.008 A 
ATOM     13  C   UNL     1      15.679 -21.487   4.777  1.00  0.00    +0.008 A 
ATOM     14  C   UNL     1      14.888 -18.958   3.905  1.00  0.00    +0.020 A 
ATOM     15  C   UNL     1      14.651 -20.803   5.439  1.00  0.00    +0.020 A 
ATOM     16  C   UNL     1      14.253 -19.537   5.005  1.00  0.00    +0.052 A 
ATOM     17  C   UNL     1      13.201 -18.839   5.683  1.00  0.00    +0.099 C 
ATOM     18  N   UNL     1      12.349 -18.275   6.235  1.00  0.00    -0.192 NA
ENDBRANCH   3  11
ENDBRANCH   1   2
BRANCH   1  19
ATOM     19  C   UNL     1      18.337 -25.548   1.277  1.00  0.00    +0.184 C 
ATOM     20  O   UNL     1      17.658 -26.247   0.526  1.00  0.00    -0.292 OA
BRANCH  19  21
ATOM     21  C   UNL     1      19.535 -24.859   0.727  1.00  0.00    +0.038 A 
ATOM     22  C   UNL     1      19.374 -23.864  -0.242  1.00  0.00    +0.015 A 
ATOM     23  C   UNL     1      20.830 -25.159   1.128  1.00  0.00    +0.122 A 
ATOM     24  C   UNL     1      20.493 -23.216  -0.762  1.00  0.00    +0.021 A 
ATOM     25  N   UNL     1      21.936 -24.545   0.640  1.00  0.00    -0.264 NA
ATOM     26  C   UNL     1      21.742 -23.588  -0.294  1.00  0.00    +0.111 A 
ENDBRANCH  19  21
ENDBRANCH   1  19
TORSDOF 4
ENDMDL
MODEL 8
REMARK VINA RESULT:    -7.204      1.766      4.379
REMARK INTER + INTRA:          -9.956
REMARK INTER:                  -8.761
REMARK INTRA:                  -1.195
REMARK UNBOUND:                -1.068
REMARK SMILES CC1(c2ccc(C#N)cc2)NC(=O)N(CC(=O)c2cccnc2)C1=O
REMARK SMILES IDX 15 1 14 2 2 3 11 4 24 5 12 6 25 7 13 8 1 9 3 11 4 12 10 13
REMARK SMILES IDX 5 14 9 15 6 16 7 17 8 18 16 19 17 20 18 21 19 22 23 23 20 24
REMARK SMILES IDX 22 25 21 26
REMARK H PARENT 11 10
ROOT
ATOM      1  C   UNL     1      18.466 -24.253  -0.063  1.00  0.00    +0.211 C 
ENDROOT
BRANCH   1   2
ATOM      2  N   UNL     1      18.279 -22.836   0.139  1.00  0.00    -0.254 N 
ATOM      3  C   UNL     1      17.339 -20.659   0.105  1.00  0.00    +0.144 C 
ATOM      4  N   UNL     1      18.764 -20.684   0.378  1.00  0.00    -0.319 N 
ATOM      5  C   UNL     1      17.087 -22.183  -0.006  1.00  0.00    +0.261 C 
ATOM      6  C   UNL     1      19.291 -21.949   0.312  1.00  0.00    +0.325 C 
ATOM      7  O   UNL     1      16.006 -22.723  -0.219  1.00  0.00    -0.271 OA
ATOM      8  O   UNL     1      20.483 -22.198   0.395  1.00  0.00    -0.248 OA
ATOM      9  C   UNL     1      17.090 -20.002  -1.256  1.00  0.00    +0.051 C 
ATOM     10  H   UNL     1      19.372 -19.877   0.373  1.00  0.00    +0.166 HD
BRANCH   3  11
ATOM     11  C   UNL     1      16.528 -20.014   1.227  1.00  0.00    -0.013 A 
ATOM     12  C   UNL     1      16.593 -20.534   2.534  1.00  0.00    +0.008 A 
ATOM     13  C   UNL     1      15.695 -18.901   1.008  1.00  0.00    +0.008 A 
ATOM     14  C   UNL     1      15.857 -19.968   3.580  1.00  0.00    +0.020 A 
ATOM     15  C   UNL     1      14.956 -18.334   2.054  1.00  0.00    +0.020 A 
ATOM     16  C   UNL     1      15.035 -18.866   3.342  1.00  0.00    +0.052 A 
ATOM     17  C   UNL     1      14.279 -18.284   4.412  1.00  0.00    +0.099 C 
ATOM     18  N   UNL     1      13.665 -17.811   5.276  1.00  0.00    -0.192 NA
ENDBRANCH   3  11
ENDBRANCH   1   2
BRANCH   1  19
ATOM     19  C   UNL     1      18.099 -24.993   1.222  1.00  0.00    +0.184 C 
ATOM     20  O   UNL     1      17.401 -26.007   1.231  1.00  0.00    -0.292 OA
BRANCH  19  21
ATOM     21  C   UNL     1      18.600 -24.456   2.515  1.00  0.00    +0.038 A 
ATOM     22  C   UNL     1      17.717 -23.793   3.374  1.00  0.00    +0.015 A 
ATOM     23  C   UNL     1      19.922 -24.573   2.922  1.00  0.00    +0.122 A 
ATOM     24  C   UNL     1      18.181 -23.286   4.587  1.00  0.00    +0.021 A 
ATOM     25  N   UNL     1      20.400 -24.091   4.095  1.00  0.00    -0.264 NA
ATOM     26  C   UNL     1      19.519 -23.458   4.901  1.00  0.00    +0.111 A 
ENDBRANCH  19  21
ENDBRANCH   1  19
TORSDOF 4
ENDMDL
MODEL 9
REMARK VINA RESULT:    -7.030      2.884      4.951
REMARK INTER + INTRA:          -9.742
REMARK INTER:                  -9.163
REMARK INTRA:                  -0.579
REMARK UNBOUND:                -1.068
REMARK SMILES CC1(c2ccc(C#N)cc2)NC(=O)N(CC(=O)c2cccnc2)C1=O
REMARK SMILES IDX 15 1 14 2 2 3 11 4 24 5 12 6 25 7 13 8 1 9 3 11 4 12 10 13
REMARK SMILES IDX 5 14 9 15 6 16 7 17 8 18 16 19 17 20 18 21 19 22 23 23 20 24
REMARK SMILES IDX 22 25 21 26
REMARK H PARENT 11 10
ROOT
ATOM      1  C   UNL     1      17.659 -25.559   2.411  1.00  0.00    +0.211 C 
ENDROOT
BRANCH   1   2
ATOM      2  N   UNL     1      17.735 -24.186   2.850  1.00  0.00    -0.254 N 
ATOM      3  C   UNL     1      17.524 -21.825   2.915  1.00  0.00    +0.144 C 
ATOM      4  N   UNL     1      18.501 -22.357   3.846  1.00  0.00    -0.319 N 
ATOM      5  C   UNL     1      17.022 -23.157   2.302  1.00  0.00    +0.261 C 
ATOM      6  C   UNL     1      18.656 -23.716   3.728  1.00  0.00    +0.325 C 
ATOM      7  O   UNL     1      16.152 -23.276   1.447  1.00  0.00    -0.271 OA
ATOM      8  O   UNL     1      19.500 -24.361   4.328  1.00  0.00    -0.248 OA
ATOM      9  C   UNL     1      18.239 -21.007   1.835  1.00  0.00    +0.051 C 
ATOM     10  H   UNL     1      19.180 -21.809   4.355  1.00  0.00    +0.166 HD
BRANCH   3  11
ATOM     11  C   UNL     1      16.408 -21.042   3.603  1.00  0.00    -0.013 A 
ATOM     12  C   UNL     1      15.724 -21.604   4.698  1.00  0.00    +0.008 A 
ATOM     13  C   UNL     1      16.019 -19.758   3.180  1.00  0.00    +0.008 A 
ATOM     14  C   UNL     1      14.693 -20.913   5.345  1.00  0.00    +0.020 A 
ATOM     15  C   UNL     1      14.986 -19.065   3.825  1.00  0.00    +0.020 A 
ATOM     16  C   UNL     1      14.321 -19.641   4.908  1.00  0.00    +0.052 A 
ATOM     17  C   UNL     1      13.266 -18.931   5.568  1.00  0.00    +0.099 C 
ATOM     18  N   UNL     1      12.410 -18.354   6.100  1.00  0.00    -0.192 NA
ENDBRANCH   3  11
ENDBRANCH   1   2
BRANCH   1  19
ATOM     19  C   UNL     1      18.534 -25.735   1.171  1.00  0.00    +0.184 C 
ATOM     20  O   UNL     1      19.106 -24.794   0.620  1.00  0.00    -0.292 OA
BRANCH  19  21
ATOM     21  C   UNL     1      18.689 -27.101   0.602  1.00  0.00    +0.038 A 
ATOM     22  C   UNL     1      19.731 -27.359  -0.294  1.00  0.00    +0.015 A 
ATOM     23  C   UNL     1      17.837 -28.151   0.916  1.00  0.00    +0.122 A 
ATOM     24  C   UNL     1      19.880 -28.637  -0.832  1.00  0.00    +0.021 A 
ATOM     25  N   UNL     1      17.960 -29.403   0.409  1.00  0.00    -0.264 NA
ATOM     26  C   UNL     1      18.978 -29.617  -0.453  1.00  0.00    +0.111 A 
ENDBRANCH  19  21
ENDBRANCH   1  19
TORSDOF 4
ENDMDL
