MODEL 1
REMARK VINA RESULT:    -9.761      0.000      0.000
REMARK INTER + INTRA:         -14.905
REMARK INTER:                 -13.756
REMARK INTRA:                  -1.149
REMARK UNBOUND:                -1.149
REMARK SMILES CC1(c2ccc(NS(=O)(=O)c3ccccc3)cc2)NC(=O)N(CC(=O)c2ccc(F)cc2F)C1=O
REMARK SMILES IDX 1 1 2 2 19 3 20 4 21 5 22 6 34 7 35 8 3 10 4 11 18 12 5 13
REMARK SMILES IDX 17 14 6 15 7 16 8 18 9 19 10 20 11 21 12 22 16 23 13 24
REMARK SMILES IDX 15 25 14 26 23 27 24 28 25 29 26 30 27 31 32 32 28 33 31 34
REMARK SMILES IDX 29 35 33 36 30 37
REMARK H PARENT 19 9 7 17
ROOT
ATOM      1  C   UNL     1      15.795 -23.487   1.095  1.00  0.00    +0.051 C 
ATOM      2  C   UNL     1      17.196 -22.890   1.254  1.00  0.00    +0.144 C 
ATOM      3  N   UNL     1      18.048 -23.833   1.954  1.00  0.00    -0.319 N 
ATOM      4  C   UNL     1      18.361 -23.420   3.224  1.00  0.00    +0.325 C 
ATOM      5  O   UNL     1      18.966 -24.102   4.035  1.00  0.00    -0.248 OA
ATOM      6  N   UNL     1      17.875 -22.167   3.408  1.00  0.00    -0.254 N 
ATOM      7  C   UNL     1      17.158 -21.763   2.317  1.00  0.00    +0.261 C 
ATOM      8  O   UNL     1      16.560 -20.697   2.214  1.00  0.00    -0.271 OA
ATOM      9  H   UNL     1      18.223 -24.786   1.668  1.00  0.00    +0.166 HD
ENDROOT
BRANCH   2  10
ATOM     10  C   UNL     1      17.784 -22.425  -0.076  1.00  0.00    -0.013 A 
ATOM     11  C   UNL     1      17.133 -22.738  -1.284  1.00  0.00    +0.009 A 
ATOM     12  C   UNL     1      18.980 -21.690  -0.152  1.00  0.00    +0.009 A 
ATOM     13  C   UNL     1      17.655 -22.336  -2.517  1.00  0.00    +0.027 A 
ATOM     14  C   UNL     1      19.505 -21.290  -1.387  1.00  0.00    +0.027 A 
ATOM     15  C   UNL     1      18.843 -21.614  -2.567  1.00  0.00    +0.049 A 
BRANCH  15  16
ATOM     16  N   UNL     1      19.384 -21.250  -3.830  1.00  0.00    -0.280 N 
ATOM     17  H   UNL     1      18.739 -20.923  -4.547  1.00  0.00    +0.180 HD
BRANCH  16  18
ATOM     18  S   UNL     1      20.638 -22.173  -4.487  1.00  0.00    +0.261 S 
ATOM     19  O   UNL     1      20.135 -23.478  -4.857  1.00  0.00    -0.201 OA
ATOM     20  O   UNL     1      21.757 -22.033  -3.577  1.00  0.00    -0.201 OA
BRANCH  18  21
ATOM     21  C   UNL     1      21.047 -21.292  -5.977  1.00  0.00    +0.087 A 
ATOM     22  C   UNL     1      20.037 -20.946  -6.879  1.00  0.00    +0.022 A 
ATOM     23  C   UNL     1      22.385 -20.985  -6.249  1.00  0.00    +0.022 A 
ATOM     24  C   UNL     1      20.367 -20.262  -8.049  1.00  0.00    +0.001 A 
ATOM     25  C   UNL     1      22.706 -20.302  -7.421  1.00  0.00    +0.001 A 
ATOM     26  C   UNL     1      21.699 -19.938  -8.316  1.00  0.00    +0.000 A 
ENDBRANCH  18  21
ENDBRANCH  16  18
ENDBRANCH  15  16
ENDBRANCH   2  10
BRANCH   6  27
ATOM     27  C   UNL     1      17.942 -21.447   4.660  1.00  0.00    +0.211 C 
BRANCH  27  28
ATOM     28  C   UNL     1      16.641 -21.675   5.426  1.00  0.00    +0.185 C 
ATOM     29  O   UNL     1      16.335 -22.767   5.907  1.00  0.00    -0.292 OA
BRANCH  28  30
ATOM     30  C   UNL     1      15.693 -20.538   5.596  1.00  0.00    +0.055 A 
ATOM     31  C   UNL     1      16.169 -19.352   6.177  1.00  0.00    +0.018 A 
ATOM     32  C   UNL     1      14.351 -20.607   5.208  1.00  0.00    +0.136 A 
ATOM     33  C   UNL     1      15.315 -18.261   6.356  1.00  0.00    +0.040 A 
ATOM     34  C   UNL     1      13.496 -19.523   5.384  1.00  0.00    +0.079 A 
ATOM     35  C   UNL     1      13.987 -18.357   5.955  1.00  0.00    +0.126 A 
ATOM     36  F   UNL     1      13.841 -21.723   4.669  1.00  0.00    -0.206 F 
ATOM     37  F   UNL     1      13.169 -17.312   6.127  1.00  0.00    -0.207 F 
ENDBRANCH  28  30
ENDBRANCH  27  28
ENDBRANCH   6  27
TORSDOF 7
ENDMDL
MODEL 2
REMARK VINA RESULT:    -9.643      2.082      2.820
REMARK INTER + INTRA:         -14.738
REMARK INTER:                 -13.697
REMARK INTRA:                  -1.041
REMARK UNBOUND:                -1.149
REMARK SMILES CC1(c2ccc(NS(=O)(=O)c3ccccc3)cc2)NC(=O)N(CC(=O)c2ccc(F)cc2F)C1=O
REMARK SMILES IDX 1 1 2 2 19 3 20 4 21 5 22 6 34 7 35 8 3 10 4 11 18 12 5 13
REMARK SMILES IDX 17 14 6 15 7 16 8 18 9 19 10 20 11 21 12 22 16 23 13 24
REMARK SMILES IDX 15 25 14 26 23 27 24 28 25 29 26 30 27 31 32 32 28 33 31 34
REMARK SMILES IDX 29 35 33 36 30 37
REMARK H PARENT 19 9 7 17
ROOT
ATOM      1  C   UNL     1      16.266 -21.621  -1.543  1.00  0.00    +0.051 C 
ATOM      2  C   UNL     1      17.427 -21.575  -0.546  1.00  0.00    +0.144 C 
ATOM      3  N   UNL     1      17.124 -22.425   0.590  1.00  0.00    -0.319 N 
ATOM      4  C   UNL     1      16.875 -21.710   1.734  1.00  0.00    +0.325 C 
ATOM      5  O   UNL     1      16.487 -22.206   2.779  1.00  0.00    -0.248 OA
ATOM      6  N   UNL     1      17.117 -20.398   1.490  1.00  0.00    -0.254 N 
ATOM      7  C   UNL     1      17.432 -20.202   0.174  1.00  0.00    +0.261 C 
ATOM      8  O   UNL     1      17.653 -19.116  -0.349  1.00  0.00    -0.271 OA
ATOM      9  H   UNL     1      16.888 -23.406   0.539  1.00  0.00    +0.166 HD
ENDROOT
BRANCH   2  10
ATOM     10  C   UNL     1      18.768 -21.902  -1.197  1.00  0.00    -0.013 A 
ATOM     11  C   UNL     1      19.083 -21.378  -2.465  1.00  0.00    +0.009 A 
ATOM     12  C   UNL     1      19.722 -22.730  -0.580  1.00  0.00    +0.009 A 
ATOM     13  C   UNL     1      20.298 -21.671  -3.092  1.00  0.00    +0.027 A 
ATOM     14  C   UNL     1      20.936 -23.026  -1.208  1.00  0.00    +0.027 A 
ATOM     15  C   UNL     1      21.223 -22.498  -2.463  1.00  0.00    +0.049 A 
BRANCH  15  16
ATOM     16  N   UNL     1      22.435 -22.822  -3.132  1.00  0.00    -0.280 N 
ATOM     17  H   UNL     1      23.149 -22.098  -3.199  1.00  0.00    +0.180 HD
BRANCH  16  18
ATOM     18  S   UNL     1      22.379 -23.780  -4.523  1.00  0.00    +0.261 S 
ATOM     19  O   UNL     1      21.254 -24.687  -4.439  1.00  0.00    -0.201 OA
ATOM     20  O   UNL     1      23.726 -24.274  -4.723  1.00  0.00    -0.201 OA
BRANCH  18  21
ATOM     21  C   UNL     1      22.046 -22.598  -5.810  1.00  0.00    +0.087 A 
ATOM     22  C   UNL     1      20.947 -22.782  -6.654  1.00  0.00    +0.022 A 
ATOM     23  C   UNL     1      22.912 -21.515  -5.990  1.00  0.00    +0.022 A 
ATOM     24  C   UNL     1      20.697 -21.855  -7.666  1.00  0.00    +0.001 A 
ATOM     25  C   UNL     1      22.656 -20.594  -7.004  1.00  0.00    +0.001 A 
ATOM     26  C   UNL     1      21.549 -20.762  -7.837  1.00  0.00    +0.000 A 
ENDBRANCH  18  21
ENDBRANCH  16  18
ENDBRANCH  15  16
ENDBRANCH   2  10
BRANCH   6  27
ATOM     27  C   UNL     1      16.876 -19.338   2.443  1.00  0.00    +0.211 C 
BRANCH  27  28
ATOM     28  C   UNL     1      15.438 -18.853   2.284  1.00  0.00    +0.185 C 
ATOM     29  O   UNL     1      14.940 -18.596   1.186  1.00  0.00    -0.292 OA
BRANCH  28  30
ATOM     30  C   UNL     1      14.597 -18.672   3.501  1.00  0.00    +0.055 A 
ATOM     31  C   UNL     1      14.576 -19.699   4.458  1.00  0.00    +0.018 A 
ATOM     32  C   UNL     1      13.824 -17.528   3.723  1.00  0.00    +0.136 A 
ATOM     33  C   UNL     1      13.802 -19.571   5.614  1.00  0.00    +0.040 A 
ATOM     34  C   UNL     1      13.050 -17.396   4.873  1.00  0.00    +0.079 A 
ATOM     35  C   UNL     1      13.048 -18.419   5.810  1.00  0.00    +0.126 A 
ATOM     36  F   UNL     1      13.790 -16.529   2.830  1.00  0.00    -0.206 F 
ATOM     37  F   UNL     1      12.305 -18.298   6.917  1.00  0.00    -0.207 F 
ENDBRANCH  28  30
ENDBRANCH  27  28
ENDBRANCH   6  27
TORSDOF 7
ENDMDL
MODEL 3
REMARK VINA RESULT:    -9.547      1.456      1.946
REMARK INTER + INTRA:         -14.603
REMARK INTER:                 -13.799
REMARK INTRA:                  -0.803
REMARK UNBOUND:                -1.149
REMARK SMILES CC1(c2ccc(NS(=O)(=O)c3ccccc3)cc2)NC(=O)N(CC(=O)c2ccc(F)cc2F)C1=O
REMARK SMILES IDX 1 1 2 2 19 3 20 4 21 5 22 6 34 7 35 8 3 10 4 11 18 12 5 13
REMARK SMILES IDX 17 14 6 15 7 16 8 18 9 19 10 20 11 21 12 22 16 23 13 24
REMARK SMILES IDX 15 25 14 26 23 27 24 28 25 29 26 30 27 31 32 32 28 33 31 34
REMARK SMILES IDX 29 35 33 36 30 37
REMARK H PARENT 19 9 7 17
ROOT
ATOM      1  C   UNL     1      16.149 -23.273   0.487  1.00  0.00    +0.051 C 
ATOM      2  C   UNL     1      17.366 -22.433   0.883  1.00  0.00    +0.144 C 
ATOM      3  N   UNL     1      18.038 -23.053   2.009  1.00  0.00    -0.319 N 
ATOM      4  C   UNL     1      17.893 -22.338   3.171  1.00  0.00    +0.325 C 
ATOM      5  O   UNL     1      18.273 -22.726   4.264  1.00  0.00    -0.248 OA
ATOM      6  N   UNL     1      17.259 -21.173   2.890  1.00  0.00    -0.254 N 
ATOM      7  C   UNL     1      16.888 -21.130   1.575  1.00  0.00    +0.261 C 
ATOM      8  O   UNL     1      16.257 -20.224   1.044  1.00  0.00    -0.271 OA
ATOM      9  H   UNL     1      18.383 -24.003   2.032  1.00  0.00    +0.166 HD
ENDROOT
BRANCH   2  10
ATOM     10  C   UNL     1      18.297 -22.164  -0.296  1.00  0.00    -0.013 A 
ATOM     11  C   UNL     1      19.629 -22.621  -0.262  1.00  0.00    +0.009 A 
ATOM     12  C   UNL     1      17.881 -21.456  -1.437  1.00  0.00    +0.009 A 
ATOM     13  C   UNL     1      20.508 -22.379  -1.322  1.00  0.00    +0.027 A 
ATOM     14  C   UNL     1      18.762 -21.210  -2.496  1.00  0.00    +0.027 A 
ATOM     15  C   UNL     1      20.073 -21.670  -2.438  1.00  0.00    +0.049 A 
BRANCH  15  16
ATOM     16  N   UNL     1      20.991 -21.394  -3.488  1.00  0.00    -0.280 N 
ATOM     17  H   UNL     1      21.007 -20.449  -3.869  1.00  0.00    +0.180 HD
BRANCH  16  18
ATOM     18  S   UNL     1      21.249 -22.559  -4.685  1.00  0.00    +0.261 S 
ATOM     19  O   UNL     1      20.036 -23.319  -4.889  1.00  0.00    -0.201 OA
ATOM     20  O   UNL     1      22.496 -23.214  -4.343  1.00  0.00    -0.201 OA
BRANCH  18  21
ATOM     21  C   UNL     1      21.543 -21.579  -6.141  1.00  0.00    +0.087 A 
ATOM     22  C   UNL     1      22.849 -21.215  -6.481  1.00  0.00    +0.022 A 
ATOM     23  C   UNL     1      20.457 -21.151  -6.911  1.00  0.00    +0.022 A 
ATOM     24  C   UNL     1      23.070 -20.441  -7.619  1.00  0.00    +0.001 A 
ATOM     25  C   UNL     1      20.687 -20.376  -8.047  1.00  0.00    +0.001 A 
ATOM     26  C   UNL     1      21.990 -20.026  -8.402  1.00  0.00    +0.000 A 
ENDBRANCH  18  21
ENDBRANCH  16  18
ENDBRANCH  15  16
ENDBRANCH   2  10
BRANCH   6  27
ATOM     27  C   UNL     1      16.859 -20.206   3.888  1.00  0.00    +0.211 C 
BRANCH  27  28
ATOM     28  C   UNL     1      15.398 -20.457   4.254  1.00  0.00    +0.185 C 
ATOM     29  O   UNL     1      14.913 -21.588   4.320  1.00  0.00    -0.292 OA
BRANCH  28  30
ATOM     30  C   UNL     1      14.514 -19.291   4.538  1.00  0.00    +0.055 A 
ATOM     31  C   UNL     1      13.863 -19.233   5.780  1.00  0.00    +0.018 A 
ATOM     32  C   UNL     1      14.301 -18.261   3.616  1.00  0.00    +0.136 A 
ATOM     33  C   UNL     1      13.024 -18.159   6.088  1.00  0.00    +0.040 A 
ATOM     34  C   UNL     1      13.466 -17.189   3.918  1.00  0.00    +0.079 A 
ATOM     35  C   UNL     1      12.836 -17.146   5.154  1.00  0.00    +0.126 A 
ATOM     36  F   UNL     1      14.880 -18.281   2.408  1.00  0.00    -0.206 F 
ATOM     37  F   UNL     1      12.032 -16.118   5.449  1.00  0.00    -0.207 F 
ENDBRANCH  28  30
ENDBRANCH  27  28
ENDBRANCH   6  27
TORSDOF 7
ENDMDL
MODEL 4
REMARK VINA RESULT:    -9.256      2.935      3.872
REMARK INTER + INTRA:         -14.193
REMARK INTER:                 -12.896
REMARK INTRA:                  -1.297
REMARK UNBOUND:                -1.149
REMARK SMILES CC1(c2ccc(NS(=O)(=O)c3ccccc3)cc2)NC(=O)N(CC(=O)c2ccc(F)cc2F)C1=O
REMARK SMILES IDX 1 1 2 2 19 3 20 4 21 5 22 6 34 7 35 8 3 10 4 11 18 12 5 13
REMARK SMILES IDX 17 14 6 15 7 16 8 18 9 19 10 20 11 21 12 22 16 23 13 24
REMARK SMILES IDX 15 25 14 26 23 27 24 28 25 29 26 30 27 31 32 32 28 33 31 34
REMARK SMILES IDX 29 35 33 36 30 37
REMARK H PARENT 19 9 7 17
ROOT
ATOM      1  C   UNL     1      17.964 -24.974   3.511  1.00  0.00    +0.051 C 
ATOM      2  C   UNL     1      18.172 -23.507   3.126  1.00  0.00    +0.144 C 
ATOM      3  N   UNL     1      18.782 -22.796   4.234  1.00  0.00    -0.319 N 
ATOM      4  C   UNL     1      17.921 -21.913   4.835  1.00  0.00    +0.325 C 
ATOM      5  O   UNL     1      18.178 -21.295   5.854  1.00  0.00    -0.248 OA
ATOM      6  N   UNL     1      16.770 -21.872   4.119  1.00  0.00    -0.254 N 
ATOM      7  C   UNL     1      16.801 -22.782   3.100  1.00  0.00    +0.261 C 
ATOM      8  O   UNL     1      15.884 -23.006   2.318  1.00  0.00    -0.271 OA
ATOM      9  H   UNL     1      19.649 -23.053   4.686  1.00  0.00    +0.166 HD
ENDROOT
BRANCH   2  10
ATOM     10  C   UNL     1      18.943 -23.352   1.818  1.00  0.00    -0.013 A 
ATOM     11  C   UNL     1      19.774 -22.233   1.617  1.00  0.00    +0.009 A 
ATOM     12  C   UNL     1      18.853 -24.292   0.776  1.00  0.00    +0.009 A 
ATOM     13  C   UNL     1      20.482 -22.059   0.424  1.00  0.00    +0.027 A 
ATOM     14  C   UNL     1      19.559 -24.116  -0.419  1.00  0.00    +0.027 A 
ATOM     15  C   UNL     1      20.371 -23.000  -0.594  1.00  0.00    +0.049 A 
BRANCH  15  16
ATOM     16  N   UNL     1      21.063 -22.787  -1.818  1.00  0.00    -0.280 N 
ATOM     17  H   UNL     1      22.009 -22.411  -1.769  1.00  0.00    +0.180 HD
BRANCH  16  18
ATOM     18  S   UNL     1      20.216 -22.186  -3.151  1.00  0.00    +0.261 S 
ATOM     19  O   UNL     1      19.876 -23.277  -4.038  1.00  0.00    -0.201 OA
ATOM     20  O   UNL     1      20.970 -21.043  -3.623  1.00  0.00    -0.201 OA
BRANCH  18  21
ATOM     21  C   UNL     1      18.712 -21.571  -2.426  1.00  0.00    +0.087 A 
ATOM     22  C   UNL     1      18.705 -20.322  -1.798  1.00  0.00    +0.022 A 
ATOM     23  C   UNL     1      17.559 -22.362  -2.459  1.00  0.00    +0.022 A 
ATOM     24  C   UNL     1      17.524 -19.850  -1.225  1.00  0.00    +0.001 A 
ATOM     25  C   UNL     1      16.383 -21.882  -1.883  1.00  0.00    +0.001 A 
ATOM     26  C   UNL     1      16.365 -20.628  -1.272  1.00  0.00    +0.000 A 
ENDBRANCH  18  21
ENDBRANCH  16  18
ENDBRANCH  15  16
ENDBRANCH   2  10
BRANCH   6  27
ATOM     27  C   UNL     1      15.602 -21.113   4.507  1.00  0.00    +0.211 C 
BRANCH  27  28
ATOM     28  C   UNL     1      15.668 -19.740   3.843  1.00  0.00    +0.185 C 
ATOM     29  O   UNL     1      16.580 -19.412   3.081  1.00  0.00    -0.292 OA
BRANCH  28  30
ATOM     30  C   UNL     1      14.595 -18.746   4.129  1.00  0.00    +0.055 A 
ATOM     31  C   UNL     1      14.061 -18.693   5.426  1.00  0.00    +0.018 A 
ATOM     32  C   UNL     1      14.095 -17.872   3.159  1.00  0.00    +0.136 A 
ATOM     33  C   UNL     1      13.054 -17.777   5.739  1.00  0.00    +0.040 A 
ATOM     34  C   UNL     1      13.091 -16.958   3.464  1.00  0.00    +0.079 A 
ATOM     35  C   UNL     1      12.580 -16.917   4.754  1.00  0.00    +0.126 A 
ATOM     36  F   UNL     1      14.554 -17.898   1.900  1.00  0.00    -0.206 F 
ATOM     37  F   UNL     1      11.614 -16.040   5.052  1.00  0.00    -0.207 F 
ENDBRANCH  28  30
ENDBRANCH  27  28
ENDBRANCH   6  27
TORSDOF 7
ENDMDL
MODEL 5
REMARK VINA RESULT:    -9.129      4.303     10.875
REMARK INTER + INTRA:         -14.013
REMARK INTER:                 -12.887
REMARK INTRA:                  -1.126
REMARK UNBOUND:                -1.149
REMARK SMILES CC1(c2ccc(NS(=O)(=O)c3ccccc3)cc2)NC(=O)N(CC(=O)c2ccc(F)cc2F)C1=O
REMARK SMILES IDX 1 1 2 2 19 3 20 4 21 5 22 6 34 7 35 8 3 10 4 11 18 12 5 13
REMARK SMILES IDX 17 14 6 15 7 16 8 18 9 19 10 20 11 21 12 22 16 23 13 24
REMARK SMILES IDX 15 25 14 26 23 27 24 28 25 29 26 30 27 31 32 32 28 33 31 34
REMARK SMILES IDX 29 35 33 36 30 37
REMARK H PARENT 19 9 7 17
ROOT
ATOM      1  C   UNL     1      16.630 -23.625  -0.987  1.00  0.00    +0.051 C 
ATOM      2  C   UNL     1      17.370 -22.369  -0.520  1.00  0.00    +0.144 C 
ATOM      3  N   UNL     1      17.054 -21.263  -1.404  1.00  0.00    -0.319 N 
ATOM      4  C   UNL     1      18.117 -20.893  -2.189  1.00  0.00    +0.325 C 
ATOM      5  O   UNL     1      18.050 -20.068  -3.085  1.00  0.00    -0.248 OA
ATOM      6  N   UNL     1      19.209 -21.602  -1.807  1.00  0.00    -0.254 N 
ATOM      7  C   UNL     1      18.880 -22.513  -0.843  1.00  0.00    +0.261 C 
ATOM      8  O   UNL     1      19.649 -23.326  -0.341  1.00  0.00    -0.271 OA
ATOM      9  H   UNL     1      16.123 -20.930  -1.613  1.00  0.00    +0.166 HD
ENDROOT
BRANCH   2  10
ATOM     10  C   UNL     1      17.111 -22.053   0.950  1.00  0.00    -0.013 A 
ATOM     11  C   UNL     1      17.082 -23.092   1.900  1.00  0.00    +0.009 A 
ATOM     12  C   UNL     1      16.885 -20.744   1.409  1.00  0.00    +0.009 A 
ATOM     13  C   UNL     1      16.834 -22.834   3.252  1.00  0.00    +0.027 A 
ATOM     14  C   UNL     1      16.633 -20.486   2.762  1.00  0.00    +0.027 A 
ATOM     15  C   UNL     1      16.607 -21.529   3.681  1.00  0.00    +0.049 A 
BRANCH  15  16
ATOM     16  N   UNL     1      16.313 -21.288   5.051  1.00  0.00    -0.280 N 
ATOM     17  H   UNL     1      16.985 -21.611   5.745  1.00  0.00    +0.180 HD
BRANCH  16  18
ATOM     18  S   UNL     1      14.721 -21.452   5.594  1.00  0.00    +0.261 S 
ATOM     19  O   UNL     1      14.723 -21.952   6.952  1.00  0.00    -0.201 OA
ATOM     20  O   UNL     1      14.009 -22.148   4.541  1.00  0.00    -0.201 OA
BRANCH  18  21
ATOM     21  C   UNL     1      14.131 -19.774   5.619  1.00  0.00    +0.087 A 
ATOM     22  C   UNL     1      12.769 -19.514   5.446  1.00  0.00    +0.022 A 
ATOM     23  C   UNL     1      15.045 -18.727   5.775  1.00  0.00    +0.022 A 
ATOM     24  C   UNL     1      12.315 -18.196   5.460  1.00  0.00    +0.001 A 
ATOM     25  C   UNL     1      14.583 -17.411   5.786  1.00  0.00    +0.001 A 
ATOM     26  C   UNL     1      13.221 -17.147   5.633  1.00  0.00    +0.000 A 
ENDBRANCH  18  21
ENDBRANCH  16  18
ENDBRANCH  15  16
ENDBRANCH   2  10
BRANCH   6  27
ATOM     27  C   UNL     1      20.491 -21.537  -2.473  1.00  0.00    +0.211 C 
BRANCH  27  28
ATOM     28  C   UNL     1      20.427 -22.381  -3.743  1.00  0.00    +0.185 C 
ATOM     29  O   UNL     1      19.744 -23.403  -3.829  1.00  0.00    -0.292 OA
BRANCH  28  30
ATOM     30  C   UNL     1      21.225 -21.963  -4.930  1.00  0.00    +0.055 A 
ATOM     31  C   UNL     1      22.554 -22.404  -5.031  1.00  0.00    +0.018 A 
ATOM     32  C   UNL     1      20.708 -21.146  -5.940  1.00  0.00    +0.136 A 
ATOM     33  C   UNL     1      23.339 -22.036  -6.127  1.00  0.00    +0.040 A 
ATOM     34  C   UNL     1      21.486 -20.776  -7.034  1.00  0.00    +0.079 A 
ATOM     35  C   UNL     1      22.795 -21.228  -7.118  1.00  0.00    +0.126 A 
ATOM     36  F   UNL     1      19.453 -20.680  -5.881  1.00  0.00    -0.206 F 
ATOM     37  F   UNL     1      23.548 -20.875  -8.168  1.00  0.00    -0.207 F 
ENDBRANCH  28  30
ENDBRANCH  27  28
ENDBRANCH   6  27
TORSDOF 7
ENDMDL
MODEL 6
REMARK VINA RESULT:    -9.047      1.611      2.196
REMARK INTER + INTRA:         -13.899
REMARK INTER:                 -13.333
REMARK INTRA:                  -0.566
REMARK UNBOUND:                -1.149
REMARK SMILES CC1(c2ccc(NS(=O)(=O)c3ccccc3)cc2)NC(=O)N(CC(=O)c2ccc(F)cc2F)C1=O
REMARK SMILES IDX 1 1 2 2 19 3 20 4 21 5 22 6 34 7 35 8 3 10 4 11 18 12 5 13
REMARK SMILES IDX 17 14 6 15 7 16 8 18 9 19 10 20 11 21 12 22 16 23 13 24
REMARK SMILES IDX 15 25 14 26 23 27 24 28 25 29 26 30 27 31 32 32 28 33 31 34
REMARK SMILES IDX 29 35 33 36 30 37
REMARK H PARENT 19 9 7 17
ROOT
ATOM      1  C   UNL     1      18.063 -25.000   1.019  1.00  0.00    +0.051 C 
ATOM      2  C   UNL     1      18.383 -23.505   1.106  1.00  0.00    +0.144 C 
ATOM      3  N   UNL     1      19.113 -23.236   2.331  1.00  0.00    -0.319 N 
ATOM      4  C   UNL     1      18.368 -22.537   3.247  1.00  0.00    +0.325 C 
ATOM      5  O   UNL     1      18.733 -22.301   4.387  1.00  0.00    -0.248 OA
ATOM      6  N   UNL     1      17.189 -22.188   2.675  1.00  0.00    -0.254 N 
ATOM      7  C   UNL     1      17.084 -22.719   1.420  1.00  0.00    +0.261 C 
ATOM      8  O   UNL     1      16.111 -22.613   0.682  1.00  0.00    -0.271 OA
ATOM      9  H   UNL     1      19.975 -23.684   2.607  1.00  0.00    +0.166 HD
ENDROOT
BRANCH   2  10
ATOM     10  C   UNL     1      19.095 -22.989  -0.141  1.00  0.00    -0.013 A 
ATOM     11  C   UNL     1      18.785 -21.716  -0.655  1.00  0.00    +0.009 A 
ATOM     12  C   UNL     1      20.063 -23.748  -0.823  1.00  0.00    +0.009 A 
ATOM     13  C   UNL     1      19.413 -21.222  -1.803  1.00  0.00    +0.027 A 
ATOM     14  C   UNL     1      20.688 -23.256  -1.973  1.00  0.00    +0.027 A 
ATOM     15  C   UNL     1      20.362 -21.996  -2.463  1.00  0.00    +0.049 A 
BRANCH  15  16
ATOM     16  N   UNL     1      20.959 -21.498  -3.653  1.00  0.00    -0.280 N 
ATOM     17  H   UNL     1      20.683 -20.571  -3.972  1.00  0.00    +0.180 HD
BRANCH  16  18
ATOM     18  S   UNL     1      21.225 -22.554  -4.946  1.00  0.00    +0.261 S 
ATOM     19  O   UNL     1      20.030 -23.335  -5.185  1.00  0.00    -0.201 OA
ATOM     20  O   UNL     1      22.499 -23.193  -4.686  1.00  0.00    -0.201 OA
BRANCH  18  21
ATOM     21  C   UNL     1      21.453 -21.451  -6.324  1.00  0.00    +0.087 A 
ATOM     22  C   UNL     1      22.719 -20.919  -6.585  1.00  0.00    +0.022 A 
ATOM     23  C   UNL     1      20.352 -21.098  -7.111  1.00  0.00    +0.022 A 
ATOM     24  C   UNL     1      22.887 -20.049  -7.662  1.00  0.00    +0.001 A 
ATOM     25  C   UNL     1      20.529 -20.227  -8.185  1.00  0.00    +0.001 A 
ATOM     26  C   UNL     1      21.795 -19.708  -8.462  1.00  0.00    +0.000 A 
ENDBRANCH  18  21
ENDBRANCH  16  18
ENDBRANCH  15  16
ENDBRANCH   2  10
BRANCH   6  27
ATOM     27  C   UNL     1      16.116 -21.516   3.375  1.00  0.00    +0.211 C 
BRANCH  27  28
ATOM     28  C   UNL     1      16.197 -20.021   3.076  1.00  0.00    +0.185 C 
ATOM     29  O   UNL     1      17.103 -19.525   2.404  1.00  0.00    -0.292 OA
BRANCH  28  30
ATOM     30  C   UNL     1      15.147 -19.116   3.623  1.00  0.00    +0.055 A 
ATOM     31  C   UNL     1      14.561 -18.176   2.761  1.00  0.00    +0.018 A 
ATOM     32  C   UNL     1      14.728 -19.161   4.956  1.00  0.00    +0.136 A 
ATOM     33  C   UNL     1      13.571 -17.308   3.230  1.00  0.00    +0.040 A 
ATOM     34  C   UNL     1      13.744 -18.298   5.430  1.00  0.00    +0.079 A 
ATOM     35  C   UNL     1      13.172 -17.380   4.560  1.00  0.00    +0.126 A 
ATOM     36  F   UNL     1      15.272 -20.024   5.825  1.00  0.00    -0.206 F 
ATOM     37  F   UNL     1      12.225 -16.547   5.010  1.00  0.00    -0.207 F 
ENDBRANCH  28  30
ENDBRANCH  27  28
ENDBRANCH   6  27
TORSDOF 7
ENDMDL
MODEL 7
REMARK VINA RESULT:    -9.003      4.164      9.388
REMARK INTER + INTRA:         -13.836
REMARK INTER:                 -12.137
REMARK INTRA:                  -1.698
REMARK UNBOUND:                -1.149
REMARK SMILES CC1(c2ccc(NS(=O)(=O)c3ccccc3)cc2)NC(=O)N(CC(=O)c2ccc(F)cc2F)C1=O
REMARK SMILES IDX 1 1 2 2 19 3 20 4 21 5 22 6 34 7 35 8 3 10 4 11 18 12 5 13
REMARK SMILES IDX 17 14 6 15 7 16 8 18 9 19 10 20 11 21 12 22 16 23 13 24
REMARK SMILES IDX 15 25 14 26 23 27 24 28 25 29 26 30 27 31 32 32 28 33 31 34
REMARK SMILES IDX 29 35 33 36 30 37
REMARK H PARENT 19 9 7 17
ROOT
ATOM      1  C   UNL     1      16.845 -22.321  -2.337  1.00  0.00    +0.051 C 
ATOM      2  C   UNL     1      18.072 -21.816  -1.572  1.00  0.00    +0.144 C 
ATOM      3  N   UNL     1      18.905 -21.026  -2.459  1.00  0.00    -0.319 N 
ATOM      4  C   UNL     1      20.083 -21.655  -2.776  1.00  0.00    +0.325 C 
ATOM      5  O   UNL     1      20.883 -21.233  -3.595  1.00  0.00    -0.248 OA
ATOM      6  N   UNL     1      20.178 -22.796  -2.050  1.00  0.00    -0.254 N 
ATOM      7  C   UNL     1      19.042 -22.999  -1.318  1.00  0.00    +0.261 C 
ATOM      8  O   UNL     1      18.820 -23.971  -0.605  1.00  0.00    -0.271 OA
ATOM      9  H   UNL     1      18.598 -20.219  -2.983  1.00  0.00    +0.166 HD
ENDROOT
BRANCH   2  10
ATOM     10  C   UNL     1      17.696 -21.079  -0.290  1.00  0.00    -0.013 A 
ATOM     11  C   UNL     1      16.556 -20.254  -0.259  1.00  0.00    +0.009 A 
ATOM     12  C   UNL     1      18.459 -21.179   0.887  1.00  0.00    +0.009 A 
ATOM     13  C   UNL     1      16.194 -19.556   0.898  1.00  0.00    +0.027 A 
ATOM     14  C   UNL     1      18.100 -20.479   2.043  1.00  0.00    +0.027 A 
ATOM     15  C   UNL     1      16.970 -19.668   2.048  1.00  0.00    +0.049 A 
BRANCH  15  16
ATOM     16  N   UNL     1      16.614 -18.918   3.202  1.00  0.00    -0.280 N 
ATOM     17  H   UNL     1      17.293 -18.249   3.562  1.00  0.00    +0.180 HD
BRANCH  16  18
ATOM     18  S   UNL     1      15.759 -19.677   4.447  1.00  0.00    +0.261 S 
ATOM     19  O   UNL     1      16.521 -19.598   5.675  1.00  0.00    -0.201 OA
ATOM     20  O   UNL     1      15.325 -20.953   3.915  1.00  0.00    -0.201 OA
BRANCH  18  21
ATOM     21  C   UNL     1      14.314 -18.653   4.623  1.00  0.00    +0.087 A 
ATOM     22  C   UNL     1      13.961 -17.769   3.599  1.00  0.00    +0.022 A 
ATOM     23  C   UNL     1      13.566 -18.717   5.803  1.00  0.00    +0.022 A 
ATOM     24  C   UNL     1      12.831 -16.964   3.748  1.00  0.00    +0.001 A 
ATOM     25  C   UNL     1      12.439 -17.909   5.943  1.00  0.00    +0.001 A 
ATOM     26  C   UNL     1      12.071 -17.038   4.917  1.00  0.00    +0.000 A 
ENDBRANCH  18  21
ENDBRANCH  16  18
ENDBRANCH  15  16
ENDBRANCH   2  10
BRANCH   6  27
ATOM     27  C   UNL     1      21.248 -23.758  -2.189  1.00  0.00    +0.211 C 
BRANCH  27  28
ATOM     28  C   UNL     1      22.323 -23.449  -1.150  1.00  0.00    +0.185 C 
ATOM     29  O   UNL     1      23.390 -22.905  -1.439  1.00  0.00    -0.292 OA
BRANCH  28  30
ATOM     30  C   UNL     1      22.083 -23.823   0.272  1.00  0.00    +0.055 A 
ATOM     31  C   UNL     1      21.849 -22.798   1.203  1.00  0.00    +0.018 A 
ATOM     32  C   UNL     1      22.088 -25.148   0.717  1.00  0.00    +0.136 A 
ATOM     33  C   UNL     1      21.619 -23.103   2.547  1.00  0.00    +0.040 A 
ATOM     34  C   UNL     1      21.860 -25.458   2.055  1.00  0.00    +0.079 A 
ATOM     35  C   UNL     1      21.625 -24.431   2.958  1.00  0.00    +0.126 A 
ATOM     36  F   UNL     1      22.328 -26.162  -0.126  1.00  0.00    -0.206 F 
ATOM     37  F   UNL     1      21.406 -24.724   4.246  1.00  0.00    -0.207 F 
ENDBRANCH  28  30
ENDBRANCH  27  28
ENDBRANCH   6  27
TORSDOF 7
ENDMDL
MODEL 8
REMARK VINA RESULT:    -8.973      1.877      2.640
REMARK INTER + INTRA:         -13.794
REMARK INTER:                 -12.992
REMARK INTRA:                  -0.802
REMARK UNBOUND:                -1.149
REMARK SMILES CC1(c2ccc(NS(=O)(=O)c3ccccc3)cc2)NC(=O)N(CC(=O)c2ccc(F)cc2F)C1=O
REMARK SMILES IDX 1 1 2 2 19 3 20 4 21 5 22 6 34 7 35 8 3 10 4 11 18 12 5 13
REMARK SMILES IDX 17 14 6 15 7 16 8 18 9 19 10 20 11 21 12 22 16 23 13 24
REMARK SMILES IDX 15 25 14 26 23 27 24 28 25 29 26 30 27 31 32 32 28 33 31 34
REMARK SMILES IDX 29 35 33 36 30 37
REMARK H PARENT 19 9 7 17
ROOT
ATOM      1  C   UNL     1      20.799 -22.220   1.708  1.00  0.00    +0.051 C 
ATOM      2  C   UNL     1      19.529 -22.021   0.876  1.00  0.00    +0.144 C 
ATOM      3  N   UNL     1      18.951 -20.725   1.177  1.00  0.00    -0.319 N 
ATOM      4  C   UNL     1      17.777 -20.821   1.881  1.00  0.00    +0.325 C 
ATOM      5  O   UNL     1      17.177 -19.864   2.343  1.00  0.00    -0.248 OA
ATOM      6  N   UNL     1      17.432 -22.129   1.979  1.00  0.00    -0.254 N 
ATOM      7  C   UNL     1      18.401 -22.925   1.435  1.00  0.00    +0.261 C 
ATOM      8  O   UNL     1      18.388 -24.151   1.422  1.00  0.00    -0.271 OA
ATOM      9  H   UNL     1      19.431 -19.839   1.101  1.00  0.00    +0.166 HD
ENDROOT
BRANCH   2  10
ATOM     10  C   UNL     1      19.771 -22.236  -0.615  1.00  0.00    -0.013 A 
ATOM     11  C   UNL     1      20.879 -22.988  -1.049  1.00  0.00    +0.009 A 
ATOM     12  C   UNL     1      18.924 -21.698  -1.600  1.00  0.00    +0.009 A 
ATOM     13  C   UNL     1      21.132 -23.192  -2.409  1.00  0.00    +0.027 A 
ATOM     14  C   UNL     1      19.179 -21.898  -2.961  1.00  0.00    +0.027 A 
ATOM     15  C   UNL     1      20.282 -22.643  -3.364  1.00  0.00    +0.049 A 
BRANCH  15  16
ATOM     16  N   UNL     1      20.578 -22.821  -4.743  1.00  0.00    -0.280 N 
ATOM     17  H   UNL     1      21.039 -23.686  -5.023  1.00  0.00    +0.180 HD
BRANCH  16  18
ATOM     18  S   UNL     1      21.118 -21.501  -5.649  1.00  0.00    +0.261 S 
ATOM     19  O   UNL     1      21.916 -20.633  -4.809  1.00  0.00    -0.201 OA
ATOM     20  O   UNL     1      19.958 -20.999  -6.356  1.00  0.00    -0.201 OA
BRANCH  18  21
ATOM     21  C   UNL     1      22.193 -22.252  -6.852  1.00  0.00    +0.087 A 
ATOM     22  C   UNL     1      21.777 -22.360  -8.182  1.00  0.00    +0.022 A 
ATOM     23  C   UNL     1      23.430 -22.761  -6.445  1.00  0.00    +0.022 A 
ATOM     24  C   UNL     1      22.622 -22.957  -9.117  1.00  0.00    +0.001 A 
ATOM     25  C   UNL     1      24.268 -23.357  -7.386  1.00  0.00    +0.001 A 
ATOM     26  C   UNL     1      23.867 -23.451  -8.719  1.00  0.00    +0.000 A 
ENDBRANCH  18  21
ENDBRANCH  16  18
ENDBRANCH  15  16
ENDBRANCH   2  10
BRANCH   6  27
ATOM     27  C   UNL     1      16.296 -22.614   2.730  1.00  0.00    +0.211 C 
BRANCH  27  28
ATOM     28  C   UNL     1      16.500 -22.271   4.203  1.00  0.00    +0.185 C 
ATOM     29  O   UNL     1      17.334 -22.841   4.909  1.00  0.00    -0.292 OA
BRANCH  28  30
ATOM     30  C   UNL     1      15.657 -21.209   4.822  1.00  0.00    +0.055 A 
ATOM     31  C   UNL     1      16.293 -20.083   5.367  1.00  0.00    +0.018 A 
ATOM     32  C   UNL     1      14.263 -21.294   4.889  1.00  0.00    +0.136 A 
ATOM     33  C   UNL     1      15.541 -19.064   5.957  1.00  0.00    +0.040 A 
ATOM     34  C   UNL     1      13.509 -20.281   5.477  1.00  0.00    +0.079 A 
ATOM     35  C   UNL     1      14.156 -19.173   6.004  1.00  0.00    +0.126 A 
ATOM     36  F   UNL     1      13.608 -22.358   4.404  1.00  0.00    -0.206 F 
ATOM     37  F   UNL     1      13.436 -18.197   6.570  1.00  0.00    -0.207 F 
ENDBRANCH  28  30
ENDBRANCH  27  28
ENDBRANCH   6  27
TORSDOF 7
ENDMDL
MODEL 9
REMARK VINA RESULT:    -8.895      4.204      9.239
REMARK INTER + INTRA:         -13.685
REMARK INTER:                 -12.118
REMARK INTRA:                  -1.566
REMARK UNBOUND:                -1.149
REMARK SMILES CC1(c2ccc(NS(=O)(=O)c3ccccc3)cc2)NC(=O)N(CC(=O)c2ccc(F)cc2F)C1=O
REMARK SMILES IDX 1 1 2 2 19 3 20 4 21 5 22 6 34 7 35 8 3 10 4 11 18 12 5 13
REMARK SMILES IDX 17 14 6 15 7 16 8 18 9 19 10 20 11 21 12 22 16 23 13 24
REMARK SMILES IDX 15 25 14 26 23 27 24 28 25 29 26 30 27 31 32 32 28 33 31 34
REMARK SMILES IDX 29 35 33 36 30 37
REMARK H PARENT 19 9 7 17
ROOT
ATOM      1  C   UNL     1      21.443 -23.771   4.340  1.00  0.00    +0.051 C 
ATOM      2  C   UNL     1      20.466 -23.885   3.166  1.00  0.00    +0.144 C 
ATOM      3  N   UNL     1      20.272 -25.282   2.829  1.00  0.00    -0.319 N 
ATOM      4  C   UNL     1      20.845 -25.621   1.630  1.00  0.00    +0.325 C 
ATOM      5  O   UNL     1      20.910 -26.762   1.201  1.00  0.00    -0.248 OA
ATOM      6  N   UNL     1      21.323 -24.496   1.042  1.00  0.00    -0.254 N 
ATOM      7  C   UNL     1      21.168 -23.417   1.865  1.00  0.00    +0.261 C 
ATOM      8  O   UNL     1      21.549 -22.277   1.623  1.00  0.00    -0.271 OA
ATOM      9  H   UNL     1      19.964 -26.000   3.470  1.00  0.00    +0.166 HD
ENDROOT
BRANCH   2  10
ATOM     10  C   UNL     1      19.156 -23.145   3.426  1.00  0.00    -0.013 A 
ATOM     11  C   UNL     1      18.377 -23.464   4.554  1.00  0.00    +0.009 A 
ATOM     12  C   UNL     1      18.675 -22.143   2.565  1.00  0.00    +0.009 A 
ATOM     13  C   UNL     1      17.167 -22.812   4.810  1.00  0.00    +0.027 A 
ATOM     14  C   UNL     1      17.463 -21.492   2.819  1.00  0.00    +0.027 A 
ATOM     15  C   UNL     1      16.710 -21.828   3.940  1.00  0.00    +0.049 A 
BRANCH  15  16
ATOM     16  N   UNL     1      15.457 -21.205   4.190  1.00  0.00    -0.280 N 
ATOM     17  H   UNL     1      15.004 -20.719   3.417  1.00  0.00    +0.180 HD
BRANCH  16  18
ATOM     18  S   UNL     1      15.209 -20.411   5.662  1.00  0.00    +0.261 S 
ATOM     19  O   UNL     1      16.474 -19.919   6.164  1.00  0.00    -0.201 OA
ATOM     20  O   UNL     1      14.380 -21.293   6.458  1.00  0.00    -0.201 OA
BRANCH  18  21
ATOM     21  C   UNL     1      14.212 -19.012   5.200  1.00  0.00    +0.087 A 
ATOM     22  C   UNL     1      13.237 -18.534   6.080  1.00  0.00    +0.022 A 
ATOM     23  C   UNL     1      14.390 -18.426   3.943  1.00  0.00    +0.022 A 
ATOM     24  C   UNL     1      12.454 -17.442   5.707  1.00  0.00    +0.001 A 
ATOM     25  C   UNL     1      13.603 -17.335   3.578  1.00  0.00    +0.001 A 
ATOM     26  C   UNL     1      12.640 -16.842   4.460  1.00  0.00    +0.000 A 
ENDBRANCH  18  21
ENDBRANCH  16  18
ENDBRANCH  15  16
ENDBRANCH   2  10
BRANCH   6  27
ATOM     27  C   UNL     1      22.070 -24.484  -0.196  1.00  0.00    +0.211 C 
BRANCH  27  28
ATOM     28  C   UNL     1      21.085 -24.426  -1.362  1.00  0.00    +0.185 C 
ATOM     29  O   UNL     1      21.159 -25.180  -2.333  1.00  0.00    -0.292 OA
BRANCH  28  30
ATOM     30  C   UNL     1      19.991 -23.414  -1.335  1.00  0.00    +0.055 A 
ATOM     31  C   UNL     1      20.253 -22.133  -1.847  1.00  0.00    +0.018 A 
ATOM     32  C   UNL     1      18.723 -23.686  -0.814  1.00  0.00    +0.136 A 
ATOM     33  C   UNL     1      19.256 -21.154  -1.842  1.00  0.00    +0.040 A 
ATOM     34  C   UNL     1      17.726 -22.713  -0.806  1.00  0.00    +0.079 A 
ATOM     35  C   UNL     1      18.002 -21.456  -1.323  1.00  0.00    +0.126 A 
ATOM     36  F   UNL     1      18.429 -24.884  -0.292  1.00  0.00    -0.206 F 
ATOM     37  F   UNL     1      17.048 -20.517  -1.317  1.00  0.00    -0.207 F 
ENDBRANCH  28  30
ENDBRANCH  27  28
ENDBRANCH   6  27
TORSDOF 7
ENDMDL
