MODEL 1
REMARK VINA RESULT:    -8.002      0.000      0.000
REMARK INTER + INTRA:         -11.771
REMARK INTER:                 -10.575
REMARK INTRA:                  -1.196
REMARK UNBOUND:                -1.196
REMARK SMILES CC1(c2ccc(S(N)(=O)=O)cc2)NC(=O)N(CC(=O)c2nccs2)C1=O
REMARK SMILES IDX 1 1 2 2 13 3 14 4 15 5 16 6 25 7 26 8 3 10 4 11 12 12 5 13
REMARK SMILES IDX 11 14 6 15 7 16 9 17 10 18 8 19 17 22 18 23 19 24 20 25
REMARK SMILES IDX 21 26 24 27 22 28 23 29
REMARK H PARENT 13 9 8 20 8 21
ROOT
ATOM      1  C   UNL     1      18.005 -23.818   4.281  1.00  0.00    +0.051 C 
ATOM      2  C   UNL     1      17.914 -22.612   3.341  1.00  0.00    +0.144 C 
ATOM      3  N   UNL     1      19.242 -22.077   3.111  1.00  0.00    -0.319 N 
ATOM      4  C   UNL     1      19.692 -22.310   1.835  1.00  0.00    +0.325 C 
ATOM      5  O   UNL     1      20.823 -22.065   1.454  1.00  0.00    -0.248 OA
ATOM      6  N   UNL     1      18.684 -22.857   1.111  1.00  0.00    -0.254 N 
ATOM      7  C   UNL     1      17.599 -23.100   1.905  1.00  0.00    +0.261 C 
ATOM      8  O   UNL     1      16.564 -23.646   1.539  1.00  0.00    -0.271 OA
ATOM      9  H   UNL     1      19.888 -21.794   3.835  1.00  0.00    +0.166 HD
ENDROOT
BRANCH   2  10
ATOM     10  C   UNL     1      16.920 -21.558   3.825  1.00  0.00    -0.013 A 
ATOM     11  C   UNL     1      16.354 -21.663   5.113  1.00  0.00    +0.008 A 
ATOM     12  C   UNL     1      16.543 -20.459   3.029  1.00  0.00    +0.008 A 
ATOM     13  C   UNL     1      15.450 -20.711   5.589  1.00  0.00    +0.022 A 
ATOM     14  C   UNL     1      15.637 -19.502   3.498  1.00  0.00    +0.022 A 
ATOM     15  C   UNL     1      15.089 -19.639   4.773  1.00  0.00    +0.082 A 
BRANCH  15  16
ATOM     16  S   UNL     1      13.945 -18.431   5.383  1.00  0.00    +0.238 S 
ATOM     17  O   UNL     1      14.539 -17.769   6.522  1.00  0.00    -0.207 OA
ATOM     18  O   UNL     1      12.633 -19.029   5.429  1.00  0.00    -0.207 OA
BRANCH  16  19
ATOM     19  N   UNL     1      13.959 -17.294   4.142  1.00  0.00    -0.225 NA
ATOM     20  H   UNL     1      13.038 -17.124   3.739  1.00  0.00    +0.137 HD
ATOM     21  H   UNL     1      14.637 -17.586   3.435  1.00  0.00    +0.137 HD
ENDBRANCH  16  19
ENDBRANCH  15  16
ENDBRANCH   2  10
BRANCH   6  22
ATOM     22  C   UNL     1      18.819 -23.316  -0.255  1.00  0.00    +0.214 C 
BRANCH  22  23
ATOM     23  C   UNL     1      18.801 -22.117  -1.208  1.00  0.00    +0.211 C 
ATOM     24  O   UNL     1      19.753 -21.870  -1.954  1.00  0.00    -0.289 OA
BRANCH  23  25
ATOM     25  C   UNL     1      17.576 -21.333  -1.152  1.00  0.00    +0.161 A 
ATOM     26  N   UNL     1      16.400 -21.808  -1.515  1.00  0.00    -0.241 NA
ATOM     27  S   UNL     1      17.588 -19.707  -0.604  1.00  0.00    -0.119 S 
ATOM     28  C   UNL     1      15.438 -20.828  -1.349  1.00  0.00    +0.124 A 
ATOM     29  C   UNL     1      15.896 -19.622  -0.863  1.00  0.00    +0.087 A 
ENDBRANCH  23  25
ENDBRANCH  22  23
ENDBRANCH   6  22
TORSDOF 6
ENDMDL
MODEL 2
REMARK VINA RESULT:    -7.486      2.157      4.268
REMARK INTER + INTRA:         -11.088
REMARK INTER:                 -10.208
REMARK INTRA:                  -0.880
REMARK UNBOUND:                -1.196
REMARK SMILES CC1(c2ccc(S(N)(=O)=O)cc2)NC(=O)N(CC(=O)c2nccs2)C1=O
REMARK SMILES IDX 1 1 2 2 13 3 14 4 15 5 16 6 25 7 26 8 3 10 4 11 12 12 5 13
REMARK SMILES IDX 11 14 6 15 7 16 9 17 10 18 8 19 17 22 18 23 19 24 20 25
REMARK SMILES IDX 21 26 24 27 22 28 23 29
REMARK H PARENT 13 9 8 20 8 21
ROOT
ATOM      1  C   UNL     1      17.261 -18.644  -0.444  1.00  0.00    +0.051 C 
ATOM      2  C   UNL     1      16.615 -19.805   0.317  1.00  0.00    +0.144 C 
ATOM      3  N   UNL     1      15.706 -20.514  -0.563  1.00  0.00    -0.319 N 
ATOM      4  C   UNL     1      16.172 -21.758  -0.912  1.00  0.00    +0.325 C 
ATOM      5  O   UNL     1      15.641 -22.479  -1.739  1.00  0.00    -0.248 OA
ATOM      6  N   UNL     1      17.299 -22.016  -0.203  1.00  0.00    -0.254 N 
ATOM      7  C   UNL     1      17.663 -20.925   0.535  1.00  0.00    +0.261 C 
ATOM      8  O   UNL     1      18.673 -20.845   1.225  1.00  0.00    -0.271 OA
ATOM      9  H   UNL     1      14.949 -20.090  -1.080  1.00  0.00    +0.166 HD
ENDROOT
BRANCH   2  10
ATOM     10  C   UNL     1      15.960 -19.363   1.624  1.00  0.00    -0.013 A 
ATOM     11  C   UNL     1      15.121 -18.230   1.644  1.00  0.00    +0.008 A 
ATOM     12  C   UNL     1      16.154 -20.058   2.834  1.00  0.00    +0.008 A 
ATOM     13  C   UNL     1      14.499 -17.806   2.821  1.00  0.00    +0.022 A 
ATOM     14  C   UNL     1      15.536 -19.640   4.017  1.00  0.00    +0.022 A 
ATOM     15  C   UNL     1      14.719 -18.510   4.004  1.00  0.00    +0.082 A 
BRANCH  15  16
ATOM     16  S   UNL     1      13.924 -17.971   5.493  1.00  0.00    +0.238 S 
ATOM     17  O   UNL     1      13.148 -19.068   6.024  1.00  0.00    -0.207 OA
ATOM     18  O   UNL     1      13.363 -16.662   5.262  1.00  0.00    -0.207 OA
BRANCH  16  19
ATOM     19  N   UNL     1      15.237 -17.801   6.534  1.00  0.00    -0.225 NA
ATOM     20  H   UNL     1      15.392 -18.617   7.125  1.00  0.00    +0.137 HD
ATOM     21  H   UNL     1      15.113 -16.949   7.085  1.00  0.00    +0.137 HD
ENDBRANCH  16  19
ENDBRANCH  15  16
ENDBRANCH   2  10
BRANCH   6  22
ATOM     22  C   UNL     1      18.114 -23.199  -0.373  1.00  0.00    +0.214 C 
BRANCH  22  23
ATOM     23  C   UNL     1      17.614 -24.310   0.555  1.00  0.00    +0.211 C 
ATOM     24  O   UNL     1      16.807 -25.161   0.170  1.00  0.00    -0.289 OA
BRANCH  23  25
ATOM     25  C   UNL     1      18.184 -24.266   1.894  1.00  0.00    +0.161 A 
ATOM     26  N   UNL     1      17.559 -23.732   2.926  1.00  0.00    -0.241 NA
ATOM     27  S   UNL     1      19.738 -24.917   2.218  1.00  0.00    -0.119 S 
ATOM     28  C   UNL     1      18.353 -23.844   4.052  1.00  0.00    +0.124 A 
ATOM     29  C   UNL     1      19.571 -24.460   3.861  1.00  0.00    +0.087 A 
ENDBRANCH  23  25
ENDBRANCH  22  23
ENDBRANCH   6  22
TORSDOF 6
ENDMDL
MODEL 3
REMARK VINA RESULT:    -7.135      2.995      5.073
REMARK INTER + INTRA:         -10.625
REMARK INTER:                  -9.804
REMARK INTRA:                  -0.821
REMARK UNBOUND:                -1.196
REMARK SMILES CC1(c2ccc(S(N)(=O)=O)cc2)NC(=O)N(CC(=O)c2nccs2)C1=O
REMARK SMILES IDX 1 1 2 2 13 3 14 4 15 5 16 6 25 7 26 8 3 10 4 11 12 12 5 13
REMARK SMILES IDX 11 14 6 15 7 16 9 17 10 18 8 19 17 22 18 23 19 24 20 25
REMARK SMILES IDX 21 26 24 27 22 28 23 29
REMARK H PARENT 13 9 8 20 8 21
ROOT
ATOM      1  C   UNL     1      16.888 -21.452   0.355  1.00  0.00    +0.051 C 
ATOM      2  C   UNL     1      17.094 -21.949   1.789  1.00  0.00    +0.144 C 
ATOM      3  N   UNL     1      16.650 -23.326   1.892  1.00  0.00    -0.319 N 
ATOM      4  C   UNL     1      17.691 -24.207   2.048  1.00  0.00    +0.325 C 
ATOM      5  O   UNL     1      17.569 -25.420   2.029  1.00  0.00    -0.248 OA
ATOM      6  N   UNL     1      18.838 -23.502   2.206  1.00  0.00    -0.254 N 
ATOM      7  C   UNL     1      18.607 -22.164   2.047  1.00  0.00    +0.261 C 
ATOM      8  O   UNL     1      19.466 -21.291   2.072  1.00  0.00    -0.271 OA
ATOM      9  H   UNL     1      15.733 -23.661   1.630  1.00  0.00    +0.166 HD
ENDROOT
BRANCH   2  10
ATOM     10  C   UNL     1      16.454 -21.034   2.830  1.00  0.00    -0.013 A 
ATOM     11  C   UNL     1      16.137 -19.701   2.497  1.00  0.00    +0.008 A 
ATOM     12  C   UNL     1      16.152 -21.475   4.133  1.00  0.00    +0.008 A 
ATOM     13  C   UNL     1      15.542 -18.842   3.423  1.00  0.00    +0.022 A 
ATOM     14  C   UNL     1      15.558 -20.620   5.068  1.00  0.00    +0.022 A 
ATOM     15  C   UNL     1      15.264 -19.305   4.708  1.00  0.00    +0.082 A 
BRANCH  15  16
ATOM     16  S   UNL     1      14.505 -18.212   5.879  1.00  0.00    +0.238 S 
ATOM     17  O   UNL     1      15.469 -17.902   6.910  1.00  0.00    -0.207 OA
ATOM     18  O   UNL     1      13.182 -18.707   6.173  1.00  0.00    -0.207 OA
BRANCH  16  19
ATOM     19  N   UNL     1      14.346 -16.803   4.971  1.00  0.00    -0.225 NA
ATOM     20  H   UNL     1      14.046 -15.999   5.521  1.00  0.00    +0.137 HD
ATOM     21  H   UNL     1      13.716 -16.985   4.187  1.00  0.00    +0.137 HD
ENDBRANCH  16  19
ENDBRANCH  15  16
ENDBRANCH   2  10
BRANCH   6  22
ATOM     22  C   UNL     1      20.152 -24.099   2.310  1.00  0.00    +0.214 C 
BRANCH  22  23
ATOM     23  C   UNL     1      20.572 -24.173   3.781  1.00  0.00    +0.211 C 
ATOM     24  O   UNL     1      19.755 -24.027   4.695  1.00  0.00    -0.289 OA
BRANCH  23  25
ATOM     25  C   UNL     1      21.989 -24.439   3.981  1.00  0.00    +0.161 A 
ATOM     26  N   UNL     1      22.849 -23.513   4.361  1.00  0.00    -0.241 NA
ATOM     27  S   UNL     1      22.641 -26.005   3.728  1.00  0.00    -0.119 S 
ATOM     28  C   UNL     1      24.110 -24.073   4.464  1.00  0.00    +0.124 A 
ATOM     29  C   UNL     1      24.191 -25.414   4.159  1.00  0.00    +0.087 A 
ENDBRANCH  23  25
ENDBRANCH  22  23
ENDBRANCH   6  22
TORSDOF 6
ENDMDL
MODEL 4
REMARK VINA RESULT:    -7.102      2.894      6.686
REMARK INTER + INTRA:         -10.582
REMARK INTER:                 -10.040
REMARK INTRA:                  -0.542
REMARK UNBOUND:                -1.196
REMARK SMILES CC1(c2ccc(S(N)(=O)=O)cc2)NC(=O)N(CC(=O)c2nccs2)C1=O
REMARK SMILES IDX 1 1 2 2 13 3 14 4 15 5 16 6 25 7 26 8 3 10 4 11 12 12 5 13
REMARK SMILES IDX 11 14 6 15 7 16 9 17 10 18 8 19 17 22 18 23 19 24 20 25
REMARK SMILES IDX 21 26 24 27 22 28 23 29
REMARK H PARENT 13 9 8 20 8 21
ROOT
ATOM      1  C   UNL     1      18.286 -22.498  -2.287  1.00  0.00    +0.051 C 
ATOM      2  C   UNL     1      18.509 -21.561  -1.096  1.00  0.00    +0.144 C 
ATOM      3  N   UNL     1      18.786 -20.223  -1.579  1.00  0.00    -0.319 N 
ATOM      4  C   UNL     1      17.755 -19.349  -1.338  1.00  0.00    +0.325 C 
ATOM      5  O   UNL     1      17.712 -18.208  -1.765  1.00  0.00    -0.248 OA
ATOM      6  N   UNL     1      16.824 -19.975  -0.576  1.00  0.00    -0.254 N 
ATOM      7  C   UNL     1      17.154 -21.289  -0.395  1.00  0.00    +0.261 C 
ATOM      8  O   UNL     1      16.469 -22.114   0.198  1.00  0.00    -0.271 OA
ATOM      9  H   UNL     1      19.514 -19.982  -2.239  1.00  0.00    +0.166 HD
ENDROOT
BRANCH   2  10
ATOM     10  C   UNL     1      19.569 -22.079  -0.126  1.00  0.00    -0.013 A 
ATOM     11  C   UNL     1      20.680 -22.797  -0.615  1.00  0.00    +0.008 A 
ATOM     12  C   UNL     1      19.488 -21.859   1.262  1.00  0.00    +0.008 A 
ATOM     13  C   UNL     1      21.672 -23.275   0.244  1.00  0.00    +0.022 A 
ATOM     14  C   UNL     1      20.476 -22.336   2.130  1.00  0.00    +0.022 A 
ATOM     15  C   UNL     1      21.558 -23.049   1.616  1.00  0.00    +0.082 A 
BRANCH  15  16
ATOM     16  S   UNL     1      22.821 -23.654   2.702  1.00  0.00    +0.238 S 
ATOM     17  O   UNL     1      24.046 -22.940   2.425  1.00  0.00    -0.207 OA
ATOM     18  O   UNL     1      22.749 -25.095   2.725  1.00  0.00    -0.207 OA
BRANCH  16  19
ATOM     19  N   UNL     1      22.289 -23.079   4.192  1.00  0.00    -0.225 NA
ATOM     20  H   UNL     1      23.046 -22.916   4.856  1.00  0.00    +0.137 HD
ATOM     21  H   UNL     1      21.588 -23.723   4.563  1.00  0.00    +0.137 HD
ENDBRANCH  16  19
ENDBRANCH  15  16
ENDBRANCH   2  10
BRANCH   6  22
ATOM     22  C   UNL     1      15.556 -19.390  -0.197  1.00  0.00    +0.214 C 
BRANCH  22  23
ATOM     23  C   UNL     1      15.774 -18.358   0.913  1.00  0.00    +0.211 C 
ATOM     24  O   UNL     1      16.113 -17.198   0.660  1.00  0.00    -0.289 OA
BRANCH  23  25
ATOM     25  C   UNL     1      15.532 -18.868   2.254  1.00  0.00    +0.161 A 
ATOM     26  N   UNL     1      14.517 -18.478   3.002  1.00  0.00    -0.241 NA
ATOM     27  S   UNL     1      16.577 -20.030   2.962  1.00  0.00    -0.119 S 
ATOM     28  C   UNL     1      14.560 -19.140   4.215  1.00  0.00    +0.124 A 
ATOM     29  C   UNL     1      15.606 -20.022   4.375  1.00  0.00    +0.087 A 
ENDBRANCH  23  25
ENDBRANCH  22  23
ENDBRANCH   6  22
TORSDOF 6
ENDMDL
MODEL 5
REMARK VINA RESULT:    -6.950      2.588      4.260
REMARK INTER + INTRA:         -10.381
REMARK INTER:                  -9.464
REMARK INTRA:                  -0.917
REMARK UNBOUND:                -1.196
REMARK SMILES CC1(c2ccc(S(N)(=O)=O)cc2)NC(=O)N(CC(=O)c2nccs2)C1=O
REMARK SMILES IDX 1 1 2 2 13 3 14 4 15 5 16 6 25 7 26 8 3 10 4 11 12 12 5 13
REMARK SMILES IDX 11 14 6 15 7 16 9 17 10 18 8 19 17 22 18 23 19 24 20 25
REMARK SMILES IDX 21 26 24 27 22 28 23 29
REMARK H PARENT 13 9 8 20 8 21
ROOT
ATOM      1  C   UNL     1      17.551 -19.479  -0.364  1.00  0.00    +0.051 C 
ATOM      2  C   UNL     1      17.206 -20.549   0.677  1.00  0.00    +0.144 C 
ATOM      3  N   UNL     1      16.507 -21.644   0.032  1.00  0.00    -0.319 N 
ATOM      4  C   UNL     1      17.268 -22.784  -0.045  1.00  0.00    +0.325 C 
ATOM      5  O   UNL     1      16.938 -23.786  -0.655  1.00  0.00    -0.248 OA
ATOM      6  N   UNL     1      18.418 -22.587   0.646  1.00  0.00    -0.254 N 
ATOM      7  C   UNL     1      18.496 -21.298   1.093  1.00  0.00    +0.261 C 
ATOM      8  O   UNL     1      19.450 -20.815   1.694  1.00  0.00    -0.271 OA
ATOM      9  H   UNL     1      15.673 -21.549  -0.530  1.00  0.00    +0.166 HD
ENDROOT
BRANCH   2  10
ATOM     10  C   UNL     1      16.451 -19.983   1.879  1.00  0.00    -0.013 A 
ATOM     11  C   UNL     1      15.648 -18.834   1.729  1.00  0.00    +0.008 A 
ATOM     12  C   UNL     1      16.518 -20.577   3.154  1.00  0.00    +0.008 A 
ATOM     13  C   UNL     1      14.938 -18.297   2.805  1.00  0.00    +0.022 A 
ATOM     14  C   UNL     1      15.811 -20.045   4.238  1.00  0.00    +0.022 A 
ATOM     15  C   UNL     1      15.032 -18.903   4.058  1.00  0.00    +0.082 A 
BRANCH  15  16
ATOM     16  S   UNL     1      14.126 -18.221   5.420  1.00  0.00    +0.238 S 
ATOM     17  O   UNL     1      15.001 -18.156   6.568  1.00  0.00    -0.207 OA
ATOM     18  O   UNL     1      12.829 -18.851   5.465  1.00  0.00    -0.207 OA
BRANCH  16  19
ATOM     19  N   UNL     1      13.916 -16.626   4.922  1.00  0.00    -0.225 NA
ATOM     20  H   UNL     1      14.380 -16.415   4.039  1.00  0.00    +0.137 HD
ATOM     21  H   UNL     1      14.220 -16.004   5.672  1.00  0.00    +0.137 HD
ENDBRANCH  16  19
ENDBRANCH  15  16
ENDBRANCH   2  10
BRANCH   6  22
ATOM     22  C   UNL     1      19.502 -23.544   0.712  1.00  0.00    +0.214 C 
BRANCH  22  23
ATOM     23  C   UNL     1      19.306 -24.466   1.919  1.00  0.00    +0.211 C 
ATOM     24  O   UNL     1      19.536 -24.083   3.070  1.00  0.00    -0.289 OA
BRANCH  23  25
ATOM     25  C   UNL     1      18.822 -25.795   1.578  1.00  0.00    +0.161 A 
ATOM     26  N   UNL     1      17.603 -26.213   1.863  1.00  0.00    -0.241 NA
ATOM     27  S   UNL     1      19.829 -26.926   0.771  1.00  0.00    -0.119 S 
ATOM     28  C   UNL     1      17.446 -27.512   1.413  1.00  0.00    +0.124 A 
ATOM     29  C   UNL     1      18.547 -28.064   0.795  1.00  0.00    +0.087 A 
ENDBRANCH  23  25
ENDBRANCH  22  23
ENDBRANCH   6  22
TORSDOF 6
ENDMDL
MODEL 6
REMARK VINA RESULT:    -6.848      2.407      3.997
REMARK INTER + INTRA:         -10.245
REMARK INTER:                  -9.343
REMARK INTRA:                  -0.902
REMARK UNBOUND:                -1.196
REMARK SMILES CC1(c2ccc(S(N)(=O)=O)cc2)NC(=O)N(CC(=O)c2nccs2)C1=O
REMARK SMILES IDX 1 1 2 2 13 3 14 4 15 5 16 6 25 7 26 8 3 10 4 11 12 12 5 13
REMARK SMILES IDX 11 14 6 15 7 16 9 17 10 18 8 19 17 22 18 23 19 24 20 25
REMARK SMILES IDX 21 26 24 27 22 28 23 29
REMARK H PARENT 13 9 8 20 8 21
ROOT
ATOM      1  C   UNL     1      16.906 -21.544   0.366  1.00  0.00    +0.051 C 
ATOM      2  C   UNL     1      17.139 -21.966   1.820  1.00  0.00    +0.144 C 
ATOM      3  N   UNL     1      16.731 -23.347   1.994  1.00  0.00    -0.319 N 
ATOM      4  C   UNL     1      17.796 -24.194   2.180  1.00  0.00    +0.325 C 
ATOM      5  O   UNL     1      17.704 -25.408   2.220  1.00  0.00    -0.248 OA
ATOM      6  N   UNL     1      18.926 -23.453   2.291  1.00  0.00    -0.254 N 
ATOM      7  C   UNL     1      18.659 -22.131   2.071  1.00  0.00    +0.261 C 
ATOM      8  O   UNL     1      19.496 -21.236   2.045  1.00  0.00    -0.271 OA
ATOM      9  H   UNL     1      15.820 -23.717   1.758  1.00  0.00    +0.166 HD
ENDROOT
BRANCH   2  10
ATOM     10  C   UNL     1      16.486 -21.018   2.824  1.00  0.00    -0.013 A 
ATOM     11  C   UNL     1      16.374 -21.395   4.178  1.00  0.00    +0.008 A 
ATOM     12  C   UNL     1      15.987 -19.755   2.449  1.00  0.00    +0.008 A 
ATOM     13  C   UNL     1      15.792 -20.547   5.123  1.00  0.00    +0.022 A 
ATOM     14  C   UNL     1      15.401 -18.901   3.389  1.00  0.00    +0.022 A 
ATOM     15  C   UNL     1      15.299 -19.306   4.719  1.00  0.00    +0.082 A 
BRANCH  15  16
ATOM     16  S   UNL     1      14.565 -18.232   5.922  1.00  0.00    +0.238 S 
ATOM     17  O   UNL     1      15.549 -17.939   6.939  1.00  0.00    -0.207 OA
ATOM     18  O   UNL     1      13.248 -18.732   6.235  1.00  0.00    -0.207 OA
BRANCH  16  19
ATOM     19  N   UNL     1      14.388 -16.808   5.041  1.00  0.00    -0.225 NA
ATOM     20  H   UNL     1      14.325 -15.976   5.626  1.00  0.00    +0.137 HD
ATOM     21  H   UNL     1      13.581 -16.901   4.421  1.00  0.00    +0.137 HD
ENDBRANCH  16  19
ENDBRANCH  15  16
ENDBRANCH   2  10
BRANCH   6  22
ATOM     22  C   UNL     1      20.256 -24.011   2.409  1.00  0.00    +0.214 C 
BRANCH  22  23
ATOM     23  C   UNL     1      20.963 -23.955   1.052  1.00  0.00    +0.211 C 
ATOM     24  O   UNL     1      20.473 -24.475   0.045  1.00  0.00    -0.289 OA
BRANCH  23  25
ATOM     25  C   UNL     1      22.228 -23.236   1.071  1.00  0.00    +0.161 A 
ATOM     26  N   UNL     1      22.679 -22.599   2.135  1.00  0.00    -0.241 NA
ATOM     27  S   UNL     1      23.230 -23.167  -0.320  1.00  0.00    -0.119 S 
ATOM     28  C   UNL     1      23.899 -22.018   1.839  1.00  0.00    +0.124 A 
ATOM     29  C   UNL     1      24.358 -22.219   0.556  1.00  0.00    +0.087 A 
ENDBRANCH  23  25
ENDBRANCH  22  23
ENDBRANCH   6  22
TORSDOF 6
ENDMDL
MODEL 7
REMARK VINA RESULT:    -6.766      2.735      7.553
REMARK INTER + INTRA:         -10.137
REMARK INTER:                  -9.224
REMARK INTRA:                  -0.913
REMARK UNBOUND:                -1.196
REMARK SMILES CC1(c2ccc(S(N)(=O)=O)cc2)NC(=O)N(CC(=O)c2nccs2)C1=O
REMARK SMILES IDX 1 1 2 2 13 3 14 4 15 5 16 6 25 7 26 8 3 10 4 11 12 12 5 13
REMARK SMILES IDX 11 14 6 15 7 16 9 17 10 18 8 19 17 22 18 23 19 24 20 25
REMARK SMILES IDX 21 26 24 27 22 28 23 29
REMARK H PARENT 13 9 8 20 8 21
ROOT
ATOM      1  C   UNL     1      20.046 -24.866   0.791  1.00  0.00    +0.051 C 
ATOM      2  C   UNL     1      19.206 -23.654   0.377  1.00  0.00    +0.144 C 
ATOM      3  N   UNL     1      17.798 -23.974   0.503  1.00  0.00    -0.319 N 
ATOM      4  C   UNL     1      17.196 -23.312   1.545  1.00  0.00    +0.325 C 
ATOM      5  O   UNL     1      16.055 -23.520   1.919  1.00  0.00    -0.248 OA
ATOM      6  N   UNL     1      18.082 -22.429   2.068  1.00  0.00    -0.254 N 
ATOM      7  C   UNL     1      19.304 -22.562   1.472  1.00  0.00    +0.261 C 
ATOM      8  O   UNL     1      20.313 -21.939   1.783  1.00  0.00    -0.271 OA
ATOM      9  H   UNL     1      17.342 -24.766   0.071  1.00  0.00    +0.166 HD
ENDROOT
BRANCH   2  10
ATOM     10  C   UNL     1      19.577 -23.122  -1.006  1.00  0.00    -0.013 A 
ATOM     11  C   UNL     1      20.627 -23.720  -1.732  1.00  0.00    +0.008 A 
ATOM     12  C   UNL     1      18.897 -22.043  -1.603  1.00  0.00    +0.008 A 
ATOM     13  C   UNL     1      20.985 -23.264  -3.003  1.00  0.00    +0.022 A 
ATOM     14  C   UNL     1      19.249 -21.578  -2.874  1.00  0.00    +0.022 A 
ATOM     15  C   UNL     1      20.297 -22.187  -3.563  1.00  0.00    +0.082 A 
BRANCH  15  16
ATOM     16  S   UNL     1      20.752 -21.615  -5.178  1.00  0.00    +0.238 S 
ATOM     17  O   UNL     1      20.795 -22.749  -6.072  1.00  0.00    -0.207 OA
ATOM     18  O   UNL     1      21.850 -20.689  -5.040  1.00  0.00    -0.207 OA
BRANCH  16  19
ATOM     19  N   UNL     1      19.383 -20.740  -5.624  1.00  0.00    -0.225 NA
ATOM     20  H   UNL     1      18.771 -21.246  -6.262  1.00  0.00    +0.137 HD
ATOM     21  H   UNL     1      19.677 -19.841  -6.008  1.00  0.00    +0.137 HD
ENDBRANCH  16  19
ENDBRANCH  15  16
ENDBRANCH   2  10
BRANCH   6  22
ATOM     22  C   UNL     1      17.825 -21.615   3.237  1.00  0.00    +0.214 C 
BRANCH  22  23
ATOM     23  C   UNL     1      16.870 -20.475   2.875  1.00  0.00    +0.211 C 
ATOM     24  O   UNL     1      17.031 -19.794   1.858  1.00  0.00    -0.289 OA
BRANCH  23  25
ATOM     25  C   UNL     1      15.779 -20.292   3.820  1.00  0.00    +0.161 A 
ATOM     26  N   UNL     1      15.068 -19.182   3.894  1.00  0.00    -0.241 NA
ATOM     27  S   UNL     1      15.343 -21.532   4.923  1.00  0.00    -0.119 S 
ATOM     28  C   UNL     1      14.110 -19.316   4.883  1.00  0.00    +0.124 A 
ATOM     29  C   UNL     1      14.107 -20.522   5.549  1.00  0.00    +0.087 A 
ENDBRANCH  23  25
ENDBRANCH  22  23
ENDBRANCH   6  22
TORSDOF 6
ENDMDL
MODEL 8
REMARK VINA RESULT:    -6.756      2.242      3.053
REMARK INTER + INTRA:         -10.124
REMARK INTER:                  -9.524
REMARK INTRA:                  -0.600
REMARK UNBOUND:                -1.196
REMARK SMILES CC1(c2ccc(S(N)(=O)=O)cc2)NC(=O)N(CC(=O)c2nccs2)C1=O
REMARK SMILES IDX 1 1 2 2 13 3 14 4 15 5 16 6 25 7 26 8 3 10 4 11 12 12 5 13
REMARK SMILES IDX 11 14 6 15 7 16 9 17 10 18 8 19 17 22 18 23 19 24 20 25
REMARK SMILES IDX 21 26 24 27 22 28 23 29
REMARK H PARENT 13 9 8 20 8 21
ROOT
ATOM      1  C   UNL     1      16.590 -23.321   1.914  1.00  0.00    +0.051 C 
ATOM      2  C   UNL     1      17.248 -21.939   1.973  1.00  0.00    +0.144 C 
ATOM      3  N   UNL     1      18.667 -22.089   2.227  1.00  0.00    -0.319 N 
ATOM      4  C   UNL     1      19.436 -21.774   1.133  1.00  0.00    +0.325 C 
ATOM      5  O   UNL     1      20.641 -21.946   1.073  1.00  0.00    -0.248 OA
ATOM      6  N   UNL     1      18.631 -21.269   0.166  1.00  0.00    -0.254 N 
ATOM      7  C   UNL     1      17.320 -21.342   0.545  1.00  0.00    +0.261 C 
ATOM      8  O   UNL     1      16.365 -21.017  -0.151  1.00  0.00    -0.271 OA
ATOM      9  H   UNL     1      19.068 -22.600   3.001  1.00  0.00    +0.166 HD
ENDROOT
BRANCH   2  10
ATOM     10  C   UNL     1      16.560 -20.997   2.960  1.00  0.00    -0.013 A 
ATOM     11  C   UNL     1      16.425 -21.371   4.312  1.00  0.00    +0.008 A 
ATOM     12  C   UNL     1      16.051 -19.743   2.570  1.00  0.00    +0.008 A 
ATOM     13  C   UNL     1      15.810 -20.529   5.242  1.00  0.00    +0.022 A 
ATOM     14  C   UNL     1      15.432 -18.894   3.494  1.00  0.00    +0.022 A 
ATOM     15  C   UNL     1      15.308 -19.297   4.824  1.00  0.00    +0.082 A 
BRANCH  15  16
ATOM     16  S   UNL     1      14.532 -18.230   6.007  1.00  0.00    +0.238 S 
ATOM     17  O   UNL     1      15.488 -17.927   7.048  1.00  0.00    -0.207 OA
ATOM     18  O   UNL     1      13.213 -18.743   6.287  1.00  0.00    -0.207 OA
BRANCH  16  19
ATOM     19  N   UNL     1      14.364 -16.808   5.121  1.00  0.00    -0.225 NA
ATOM     20  H   UNL     1      13.416 -16.657   4.777  1.00  0.00    +0.137 HD
ATOM     21  H   UNL     1      15.050 -16.808   4.365  1.00  0.00    +0.137 HD
ENDBRANCH  16  19
ENDBRANCH  15  16
ENDBRANCH   2  10
BRANCH   6  22
ATOM     22  C   UNL     1      19.081 -20.908  -1.160  1.00  0.00    +0.214 C 
BRANCH  22  23
ATOM     23  C   UNL     1      19.099 -22.148  -2.057  1.00  0.00    +0.211 C 
ATOM     24  O   UNL     1      18.061 -22.614  -2.537  1.00  0.00    -0.289 OA
BRANCH  23  25
ATOM     25  C   UNL     1      20.427 -22.696  -2.289  1.00  0.00    +0.161 A 
ATOM     26  N   UNL     1      21.362 -22.056  -2.966  1.00  0.00    -0.241 NA
ATOM     27  S   UNL     1      20.867 -24.240  -1.686  1.00  0.00    -0.119 S 
ATOM     28  C   UNL     1      22.506 -22.831  -3.013  1.00  0.00    +0.124 A 
ATOM     29  C   UNL     1      22.426 -24.049  -2.373  1.00  0.00    +0.087 A 
ENDBRANCH  23  25
ENDBRANCH  22  23
ENDBRANCH   6  22
TORSDOF 6
ENDMDL
MODEL 9
REMARK VINA RESULT:    -6.727      2.807      4.492
REMARK INTER + INTRA:         -10.086
REMARK INTER:                  -9.625
REMARK INTRA:                  -0.462
REMARK UNBOUND:                -1.196
REMARK SMILES CC1(c2ccc(S(N)(=O)=O)cc2)NC(=O)N(CC(=O)c2nccs2)C1=O
REMARK SMILES IDX 1 1 2 2 13 3 14 4 15 5 16 6 25 7 26 8 3 10 4 11 12 12 5 13
REMARK SMILES IDX 11 14 6 15 7 16 9 17 10 18 8 19 17 22 18 23 19 24 20 25
REMARK SMILES IDX 21 26 24 27 22 28 23 29
REMARK H PARENT 13 9 8 20 8 21
ROOT
ATOM      1  C   UNL     1      17.212 -18.433  -0.571  1.00  0.00    +0.051 C 
ATOM      2  C   UNL     1      16.810 -19.842  -0.127  1.00  0.00    +0.144 C 
ATOM      3  N   UNL     1      15.759 -20.341  -0.991  1.00  0.00    -0.319 N 
ATOM      4  C   UNL     1      16.189 -21.348  -1.820  1.00  0.00    +0.325 C 
ATOM      5  O   UNL     1      15.517 -21.830  -2.716  1.00  0.00    -0.248 OA
ATOM      6  N   UNL     1      17.458 -21.681  -1.478  1.00  0.00    -0.254 N 
ATOM      7  C   UNL     1      17.931 -20.842  -0.508  1.00  0.00    +0.261 C 
ATOM      8  O   UNL     1      19.067 -20.864  -0.048  1.00  0.00    -0.271 OA
ATOM      9  H   UNL     1      14.885 -19.868  -1.175  1.00  0.00    +0.166 HD
ENDROOT
BRANCH   2  10
ATOM     10  C   UNL     1      16.451 -19.915   1.356  1.00  0.00    -0.013 A 
ATOM     11  C   UNL     1      15.654 -18.907   1.937  1.00  0.00    +0.008 A 
ATOM     12  C   UNL     1      16.882 -20.970   2.183  1.00  0.00    +0.008 A 
ATOM     13  C   UNL     1      15.299 -18.949   3.288  1.00  0.00    +0.022 A 
ATOM     14  C   UNL     1      16.533 -21.019   3.537  1.00  0.00    +0.022 A 
ATOM     15  C   UNL     1      15.750 -20.003   4.083  1.00  0.00    +0.082 A 
BRANCH  15  16
ATOM     16  S   UNL     1      15.294 -20.053   5.794  1.00  0.00    +0.238 S 
ATOM     17  O   UNL     1      14.799 -18.751   6.177  1.00  0.00    -0.207 OA
ATOM     18  O   UNL     1      16.335 -20.736   6.523  1.00  0.00    -0.207 OA
BRANCH  16  19
ATOM     19  N   UNL     1      13.941 -21.056   5.754  1.00  0.00    -0.225 NA
ATOM     20  H   UNL     1      13.803 -21.511   4.853  1.00  0.00    +0.137 HD
ATOM     21  H   UNL     1      13.122 -20.515   6.039  1.00  0.00    +0.137 HD
ENDBRANCH  16  19
ENDBRANCH  15  16
ENDBRANCH   2  10
BRANCH   6  22
ATOM     22  C   UNL     1      18.266 -22.646  -2.192  1.00  0.00    +0.214 C 
BRANCH  22  23
ATOM     23  C   UNL     1      19.147 -21.927  -3.217  1.00  0.00    +0.211 C 
ATOM     24  O   UNL     1      18.837 -20.823  -3.675  1.00  0.00    -0.289 OA
BRANCH  23  25
ATOM     25  C   UNL     1      20.357 -22.652  -3.573  1.00  0.00    +0.161 A 
ATOM     26  N   UNL     1      21.268 -23.011  -2.689  1.00  0.00    -0.241 NA
ATOM     27  S   UNL     1      20.681 -23.091  -5.200  1.00  0.00    -0.119 S 
ATOM     28  C   UNL     1      22.293 -23.682  -3.333  1.00  0.00    +0.124 A 
ATOM     29  C   UNL     1      22.148 -23.821  -4.696  1.00  0.00    +0.087 A 
ENDBRANCH  23  25
ENDBRANCH  22  23
ENDBRANCH   6  22
TORSDOF 6
ENDMDL
