MODEL 1
REMARK VINA RESULT:    -9.086      0.000      0.000
REMARK INTER + INTRA:         -12.890
REMARK INTER:                 -12.007
REMARK INTRA:                  -0.883
REMARK UNBOUND:                -0.883
REMARK SMILES O=C(O)c1nc2ccc(C(F)(F)F)cc2nc1NCc1ccc(Cl)cc1
REMARK SMILES IDX 4 1 5 2 6 3 7 4 8 5 9 6 14 7 15 8 16 9 17 10 2 11 1 12 3 13
REMARK SMILES IDX 18 15 19 17 20 18 21 19 26 20 22 21 25 22 23 23 24 24 10 25
REMARK SMILES IDX 11 26 12 27 13 28
REMARK H PARENT 3 14 18 16
ROOT
ATOM      1  C   UNL     1      16.686 -18.876   0.158  1.00  0.00    +0.191 A 
ATOM      2  N   UNL     1      15.767 -17.902   0.420  1.00  0.00    -0.236 NA
ATOM      3  C   UNL     1      15.180 -17.941   1.624  1.00  0.00    +0.090 A 
ATOM      4  C   UNL     1      14.236 -16.980   1.958  1.00  0.00    +0.031 A 
ATOM      5  C   UNL     1      13.604 -16.982   3.203  1.00  0.00    +0.015 A 
ATOM      6  C   UNL     1      13.911 -17.971   4.141  1.00  0.00    +0.058 A 
ATOM      7  C   UNL     1      14.872 -18.937   3.804  1.00  0.00    +0.043 A 
ATOM      8  C   UNL     1      15.506 -18.941   2.567  1.00  0.00    +0.092 A 
ATOM      9  N   UNL     1      16.414 -19.897   2.294  1.00  0.00    -0.227 NA
ATOM     10  C   UNL     1      17.022 -19.881   1.080  1.00  0.00    +0.160 A 
ENDROOT
BRANCH   1  11
ATOM     11  C   UNL     1      17.318 -18.782  -1.190  1.00  0.00    +0.358 C 
ATOM     12  O   UNL     1      18.053 -17.895  -1.586  1.00  0.00    -0.244 OA
BRANCH  11  13
ATOM     13  O   UNL     1      17.067 -19.852  -1.980  1.00  0.00    -0.476 OA
ATOM     14  H   UNL     1      16.353 -19.523  -2.568  1.00  0.00    +0.297 HD
ENDBRANCH  11  13
ENDBRANCH   1  11
BRANCH  10  15
ATOM     15  N   UNL     1      17.882 -20.942   0.757  1.00  0.00    -0.364 N 
ATOM     16  H   UNL     1      18.651 -20.595   0.179  1.00  0.00    +0.162 HD
BRANCH  15  17
ATOM     17  C   UNL     1      18.351 -21.734   1.883  1.00  0.00    +0.150 C 
BRANCH  17  18
ATOM     18  C   UNL     1      18.012 -23.187   1.629  1.00  0.00    -0.029 A 
ATOM     19  C   UNL     1      17.339 -23.574   0.461  1.00  0.00    +0.007 A 
ATOM     20  C   UNL     1      18.344 -24.165   2.580  1.00  0.00    +0.007 A 
ATOM     21  C   UNL     1      17.017 -24.916   0.242  1.00  0.00    +0.021 A 
ATOM     22  C   UNL     1      18.021 -25.506   2.361  1.00  0.00    +0.021 A 
ATOM     23  C   UNL     1      17.361 -25.876   1.192  1.00  0.00    +0.041 A 
ATOM     24 Cl   UNL     1      16.961 -27.527   0.921  1.00  0.00    -0.084 Cl
ENDBRANCH  17  18
ENDBRANCH  15  17
ENDBRANCH  10  15
BRANCH   6  25
ATOM     25  C   UNL     1      13.260 -17.986   5.502  1.00  0.00    +0.416 C 
ATOM     26  F   UNL     1      12.672 -16.797   5.804  1.00  0.00    -0.166 F 
ATOM     27  F   UNL     1      14.144 -18.235   6.508  1.00  0.00    -0.166 F 
ATOM     28  F   UNL     1      12.285 -18.929   5.620  1.00  0.00    -0.166 F 
ENDBRANCH   6  25
TORSDOF 6
ENDMDL
MODEL 2
REMARK VINA RESULT:    -8.990      1.719      2.187
REMARK INTER + INTRA:         -12.764
REMARK INTER:                 -11.879
REMARK INTRA:                  -0.885
REMARK UNBOUND:                -0.883
REMARK SMILES O=C(O)c1nc2ccc(C(F)(F)F)cc2nc1NCc1ccc(Cl)cc1
REMARK SMILES IDX 4 1 5 2 6 3 7 4 8 5 9 6 14 7 15 8 16 9 17 10 2 11 1 12 3 13
REMARK SMILES IDX 18 15 19 17 20 18 21 19 26 20 22 21 25 22 23 23 24 24 10 25
REMARK SMILES IDX 11 26 12 27 13 28
REMARK H PARENT 3 14 18 16
ROOT
ATOM      1  C   UNL     1      16.594 -18.936   0.276  1.00  0.00    +0.191 A 
ATOM      2  N   UNL     1      15.750 -17.892   0.520  1.00  0.00    -0.236 NA
ATOM      3  C   UNL     1      15.129 -17.889   1.708  1.00  0.00    +0.090 A 
ATOM      4  C   UNL     1      14.257 -16.856   2.023  1.00  0.00    +0.031 A 
ATOM      5  C   UNL     1      13.593 -16.814   3.250  1.00  0.00    +0.015 A 
ATOM      6  C   UNL     1      13.793 -17.829   4.188  1.00  0.00    +0.058 A 
ATOM      7  C   UNL     1      14.681 -18.869   3.871  1.00  0.00    +0.043 A 
ATOM      8  C   UNL     1      15.347 -18.918   2.651  1.00  0.00    +0.092 A 
ATOM      9  N   UNL     1      16.182 -19.943   2.395  1.00  0.00    -0.227 NA
ATOM     10  C   UNL     1      16.822 -19.969   1.199  1.00  0.00    +0.160 A 
ENDROOT
BRANCH   1  11
ATOM     11  C   UNL     1      17.268 -18.886  -1.054  1.00  0.00    +0.358 C 
ATOM     12  O   UNL     1      18.017 -18.013  -1.456  1.00  0.00    -0.244 OA
BRANCH  11  13
ATOM     13  O   UNL     1      17.042 -19.982  -1.816  1.00  0.00    -0.476 OA
ATOM     14  H   UNL     1      17.763 -19.935  -2.481  1.00  0.00    +0.297 HD
ENDBRANCH  11  13
ENDBRANCH   1  11
BRANCH  10  15
ATOM     15  N   UNL     1      17.602 -21.096   0.891  1.00  0.00    -0.364 N 
ATOM     16  H   UNL     1      18.592 -20.869   1.012  1.00  0.00    +0.162 HD
BRANCH  15  17
ATOM     17  C   UNL     1      17.229 -22.323   1.577  1.00  0.00    +0.150 C 
BRANCH  17  18
ATOM     18  C   UNL     1      18.448 -22.876   2.282  1.00  0.00    -0.029 A 
ATOM     19  C   UNL     1      19.739 -22.584   1.817  1.00  0.00    +0.007 A 
ATOM     20  C   UNL     1      18.299 -23.715   3.397  1.00  0.00    +0.007 A 
ATOM     21  C   UNL     1      20.859 -23.112   2.465  1.00  0.00    +0.021 A 
ATOM     22  C   UNL     1      19.418 -24.242   4.044  1.00  0.00    +0.021 A 
ATOM     23  C   UNL     1      20.694 -23.937   3.576  1.00  0.00    +0.041 A 
ATOM     24 Cl   UNL     1      22.075 -24.586   4.370  1.00  0.00    -0.084 Cl
ENDBRANCH  17  18
ENDBRANCH  15  17
ENDBRANCH  10  15
BRANCH   6  25
ATOM     25  C   UNL     1      13.105 -17.799   5.532  1.00  0.00    +0.416 C 
ATOM     26  F   UNL     1      13.932 -18.187   6.540  1.00  0.00    -0.166 F 
ATOM     27  F   UNL     1      12.025 -18.626   5.592  1.00  0.00    -0.166 F 
ATOM     28  F   UNL     1      12.649 -16.563   5.873  1.00  0.00    -0.166 F 
ENDBRANCH   6  25
TORSDOF 6
ENDMDL
MODEL 3
REMARK VINA RESULT:    -8.902      3.456      4.632
REMARK INTER + INTRA:         -12.648
REMARK INTER:                 -11.719
REMARK INTRA:                  -0.929
REMARK UNBOUND:                -0.883
REMARK SMILES O=C(O)c1nc2ccc(C(F)(F)F)cc2nc1NCc1ccc(Cl)cc1
REMARK SMILES IDX 4 1 5 2 6 3 7 4 8 5 9 6 14 7 15 8 16 9 17 10 2 11 1 12 3 13
REMARK SMILES IDX 18 15 19 17 20 18 21 19 26 20 22 21 25 22 23 23 24 24 10 25
REMARK SMILES IDX 11 26 12 27 13 28
REMARK H PARENT 3 14 18 16
ROOT
ATOM      1  C   UNL     1      17.546 -21.848   4.676  1.00  0.00    +0.191 A 
ATOM      2  N   UNL     1      17.264 -20.966   5.679  1.00  0.00    -0.236 NA
ATOM      3  C   UNL     1      16.256 -20.111   5.458  1.00  0.00    +0.090 A 
ATOM      4  C   UNL     1      15.914 -19.188   6.436  1.00  0.00    +0.031 A 
ATOM      5  C   UNL     1      14.868 -18.282   6.248  1.00  0.00    +0.015 A 
ATOM      6  C   UNL     1      14.147 -18.286   5.051  1.00  0.00    +0.058 A 
ATOM      7  C   UNL     1      14.490 -19.226   4.066  1.00  0.00    +0.043 A 
ATOM      8  C   UNL     1      15.529 -20.132   4.247  1.00  0.00    +0.092 A 
ATOM      9  N   UNL     1      15.820 -21.006   3.265  1.00  0.00    -0.227 NA
ATOM     10  C   UNL     1      16.838 -21.882   3.464  1.00  0.00    +0.160 A 
ENDROOT
BRANCH   1  11
ATOM     11  C   UNL     1      18.668 -22.784   4.976  1.00  0.00    +0.358 C 
ATOM     12  O   UNL     1      18.825 -23.900   4.513  1.00  0.00    -0.244 OA
BRANCH  11  13
ATOM     13  O   UNL     1      19.609 -22.257   5.794  1.00  0.00    -0.476 OA
ATOM     14  H   UNL     1      19.816 -23.006   6.395  1.00  0.00    +0.297 HD
ENDBRANCH  11  13
ENDBRANCH   1  11
BRANCH  10  15
ATOM     15  N   UNL     1      17.212 -22.714   2.397  1.00  0.00    -0.364 N 
ATOM     16  H   UNL     1      16.382 -23.175   2.016  1.00  0.00    +0.162 HD
BRANCH  15  17
ATOM     17  C   UNL     1      18.016 -22.083   1.362  1.00  0.00    +0.150 C 
BRANCH  17  18
ATOM     18  C   UNL     1      17.159 -21.891   0.130  1.00  0.00    -0.029 A 
ATOM     19  C   UNL     1      16.534 -20.661  -0.124  1.00  0.00    +0.007 A 
ATOM     20  C   UNL     1      16.956 -22.955  -0.762  1.00  0.00    +0.007 A 
ATOM     21  C   UNL     1      15.732 -20.497  -1.257  1.00  0.00    +0.021 A 
ATOM     22  C   UNL     1      16.154 -22.791  -1.893  1.00  0.00    +0.021 A 
ATOM     23  C   UNL     1      15.547 -21.562  -2.137  1.00  0.00    +0.041 A 
ATOM     24 Cl   UNL     1      14.557 -21.357  -3.529  1.00  0.00    -0.084 Cl
ENDBRANCH  17  18
ENDBRANCH  15  17
ENDBRANCH  10  15
BRANCH   6  25
ATOM     25  C   UNL     1      12.998 -17.333   4.827  1.00  0.00    +0.416 C 
ATOM     26  F   UNL     1      11.790 -17.949   4.946  1.00  0.00    -0.166 F 
ATOM     27  F   UNL     1      13.012 -16.770   3.588  1.00  0.00    -0.166 F 
ATOM     28  F   UNL     1      12.981 -16.297   5.709  1.00  0.00    -0.166 F 
ENDBRANCH   6  25
TORSDOF 6
ENDMDL
MODEL 4
REMARK VINA RESULT:    -8.866      2.276      2.624
REMARK INTER + INTRA:         -12.600
REMARK INTER:                 -11.695
REMARK INTRA:                  -0.905
REMARK UNBOUND:                -0.883
REMARK SMILES O=C(O)c1nc2ccc(C(F)(F)F)cc2nc1NCc1ccc(Cl)cc1
REMARK SMILES IDX 4 1 5 2 6 3 7 4 8 5 9 6 14 7 15 8 16 9 17 10 2 11 1 12 3 13
REMARK SMILES IDX 18 15 19 17 20 18 21 19 26 20 22 21 25 22 23 23 24 24 10 25
REMARK SMILES IDX 11 26 12 27 13 28
REMARK H PARENT 3 14 18 16
ROOT
ATOM      1  C   UNL     1      16.569 -18.976   0.231  1.00  0.00    +0.191 A 
ATOM      2  N   UNL     1      15.726 -17.928   0.463  1.00  0.00    -0.236 NA
ATOM      3  C   UNL     1      15.114 -17.905   1.656  1.00  0.00    +0.090 A 
ATOM      4  C   UNL     1      14.244 -16.867   1.959  1.00  0.00    +0.031 A 
ATOM      5  C   UNL     1      13.589 -16.804   3.190  1.00  0.00    +0.015 A 
ATOM      6  C   UNL     1      13.796 -17.803   4.145  1.00  0.00    +0.058 A 
ATOM      7  C   UNL     1      14.682 -18.848   3.838  1.00  0.00    +0.043 A 
ATOM      8  C   UNL     1      15.339 -18.917   2.615  1.00  0.00    +0.092 A 
ATOM      9  N   UNL     1      16.173 -19.947   2.371  1.00  0.00    -0.227 NA
ATOM     10  C   UNL     1      16.804 -19.993   1.170  1.00  0.00    +0.160 A 
ENDROOT
BRANCH   1  11
ATOM     11  C   UNL     1      17.234 -18.949  -1.104  1.00  0.00    +0.358 C 
ATOM     12  O   UNL     1      18.032 -18.118  -1.500  1.00  0.00    -0.244 OA
BRANCH  11  13
ATOM     13  O   UNL     1      16.932 -20.016  -1.880  1.00  0.00    -0.476 OA
ATOM     14  H   UNL     1      17.738 -20.116  -2.432  1.00  0.00    +0.297 HD
ENDBRANCH  11  13
ENDBRANCH   1  11
BRANCH  10  15
ATOM     15  N   UNL     1      17.582 -21.125   0.876  1.00  0.00    -0.364 N 
ATOM     16  H   UNL     1      17.722 -21.189  -0.135  1.00  0.00    +0.162 HD
BRANCH  15  17
ATOM     17  C   UNL     1      18.829 -21.237   1.615  1.00  0.00    +0.150 C 
BRANCH  17  18
ATOM     18  C   UNL     1      19.839 -21.966   0.756  1.00  0.00    -0.029 A 
ATOM     19  C   UNL     1      20.998 -22.518   1.323  1.00  0.00    +0.007 A 
ATOM     20  C   UNL     1      19.641 -22.072  -0.629  1.00  0.00    +0.007 A 
ATOM     21  C   UNL     1      21.933 -23.175   0.519  1.00  0.00    +0.021 A 
ATOM     22  C   UNL     1      20.577 -22.729  -1.432  1.00  0.00    +0.021 A 
ATOM     23  C   UNL     1      21.718 -23.279  -0.854  1.00  0.00    +0.041 A 
ATOM     24 Cl   UNL     1      22.872 -24.087  -1.841  1.00  0.00    -0.084 Cl
ENDBRANCH  17  18
ENDBRANCH  15  17
ENDBRANCH  10  15
BRANCH   6  25
ATOM     25  C   UNL     1      13.118 -17.750   5.492  1.00  0.00    +0.416 C 
ATOM     26  F   UNL     1      12.677 -16.500   5.796  1.00  0.00    -0.166 F 
ATOM     27  F   UNL     1      13.942 -18.117   6.513  1.00  0.00    -0.166 F 
ATOM     28  F   UNL     1      12.031 -18.565   5.578  1.00  0.00    -0.166 F 
ENDBRANCH   6  25
TORSDOF 6
ENDMDL
MODEL 5
REMARK VINA RESULT:    -8.725      3.546      4.585
REMARK INTER + INTRA:         -12.413
REMARK INTER:                 -11.626
REMARK INTRA:                  -0.787
REMARK UNBOUND:                -0.883
REMARK SMILES O=C(O)c1nc2ccc(C(F)(F)F)cc2nc1NCc1ccc(Cl)cc1
REMARK SMILES IDX 4 1 5 2 6 3 7 4 8 5 9 6 14 7 15 8 16 9 17 10 2 11 1 12 3 13
REMARK SMILES IDX 18 15 19 17 20 18 21 19 26 20 22 21 25 22 23 23 24 24 10 25
REMARK SMILES IDX 11 26 12 27 13 28
REMARK H PARENT 3 14 18 16
ROOT
ATOM      1  C   UNL     1      17.596 -21.750   4.514  1.00  0.00    +0.191 A 
ATOM      2  N   UNL     1      17.045 -21.125   5.594  1.00  0.00    -0.236 NA
ATOM      3  C   UNL     1      16.114 -20.196   5.338  1.00  0.00    +0.090 A 
ATOM      4  C   UNL     1      15.511 -19.522   6.390  1.00  0.00    +0.031 A 
ATOM      5  C   UNL     1      14.534 -18.549   6.167  1.00  0.00    +0.015 A 
ATOM      6  C   UNL     1      14.152 -18.230   4.862  1.00  0.00    +0.058 A 
ATOM      7  C   UNL     1      14.758 -18.918   3.799  1.00  0.00    +0.043 A 
ATOM      8  C   UNL     1      15.730 -19.889   4.014  1.00  0.00    +0.092 A 
ATOM      9  N   UNL     1      16.285 -20.513   2.957  1.00  0.00    -0.227 NA
ATOM     10  C   UNL     1      17.231 -21.457   3.190  1.00  0.00    +0.160 A 
ENDROOT
BRANCH   1  11
ATOM     11  C   UNL     1      18.618 -22.783   4.853  1.00  0.00    +0.358 C 
ATOM     12  O   UNL     1      18.681 -23.915   4.407  1.00  0.00    -0.244 OA
BRANCH  11  13
ATOM     13  O   UNL     1      19.582 -22.335   5.691  1.00  0.00    -0.476 OA
ATOM     14  H   UNL     1      19.476 -22.918   6.474  1.00  0.00    +0.297 HD
ENDBRANCH  11  13
ENDBRANCH   1  11
BRANCH  10  15
ATOM     15  N   UNL     1      17.887 -22.023   2.085  1.00  0.00    -0.364 N 
ATOM     16  H   UNL     1      17.199 -22.264   1.367  1.00  0.00    +0.162 HD
BRANCH  15  17
ATOM     17  C   UNL     1      18.995 -21.248   1.550  1.00  0.00    +0.150 C 
BRANCH  17  18
ATOM     18  C   UNL     1      19.211 -21.642   0.105  1.00  0.00    -0.029 A 
ATOM     19  C   UNL     1      20.122 -22.653  -0.235  1.00  0.00    +0.007 A 
ATOM     20  C   UNL     1      18.519 -20.977  -0.919  1.00  0.00    +0.007 A 
ATOM     21  C   UNL     1      20.326 -23.000  -1.573  1.00  0.00    +0.021 A 
ATOM     22  C   UNL     1      18.723 -21.323  -2.256  1.00  0.00    +0.021 A 
ATOM     23  C   UNL     1      19.625 -22.335  -2.577  1.00  0.00    +0.041 A 
ATOM     24 Cl   UNL     1      19.880 -22.762  -4.224  1.00  0.00    -0.084 Cl
ENDBRANCH  17  18
ENDBRANCH  15  17
ENDBRANCH  10  15
BRANCH   6  25
ATOM     25  C   UNL     1      13.084 -17.198   4.590  1.00  0.00    +0.416 C 
ATOM     26  F   UNL     1      13.139 -16.159   5.465  1.00  0.00    -0.166 F 
ATOM     27  F   UNL     1      11.823 -17.704   4.686  1.00  0.00    -0.166 F 
ATOM     28  F   UNL     1      13.172 -16.649   3.347  1.00  0.00    -0.166 F 
ENDBRANCH   6  25
TORSDOF 6
ENDMDL
MODEL 6
REMARK VINA RESULT:    -8.446      2.933      3.820
REMARK INTER + INTRA:         -12.045
REMARK INTER:                 -11.028
REMARK INTRA:                  -1.017
REMARK UNBOUND:                -0.883
REMARK SMILES O=C(O)c1nc2ccc(C(F)(F)F)cc2nc1NCc1ccc(Cl)cc1
REMARK SMILES IDX 4 1 5 2 6 3 7 4 8 5 9 6 14 7 15 8 16 9 17 10 2 11 1 12 3 13
REMARK SMILES IDX 18 15 19 17 20 18 21 19 26 20 22 21 25 22 23 23 24 24 10 25
REMARK SMILES IDX 11 26 12 27 13 28
REMARK H PARENT 3 14 18 16
ROOT
ATOM      1  C   UNL     1      17.708 -21.955   4.250  1.00  0.00    +0.191 A 
ATOM      2  N   UNL     1      16.996 -21.526   5.332  1.00  0.00    -0.236 NA
ATOM      3  C   UNL     1      16.112 -20.542   5.115  1.00  0.00    +0.090 A 
ATOM      4  C   UNL     1      15.352 -20.059   6.172  1.00  0.00    +0.031 A 
ATOM      5  C   UNL     1      14.418 -19.038   5.988  1.00  0.00    +0.015 A 
ATOM      6  C   UNL     1      14.237 -18.474   4.722  1.00  0.00    +0.058 A 
ATOM      7  C   UNL     1      15.001 -18.971   3.654  1.00  0.00    +0.043 A 
ATOM      8  C   UNL     1      15.933 -19.988   3.829  1.00  0.00    +0.092 A 
ATOM      9  N   UNL     1      16.645 -20.420   2.770  1.00  0.00    -0.227 NA
ATOM     10  C   UNL     1      17.548 -21.414   2.964  1.00  0.00    +0.160 A 
ENDROOT
BRANCH   1  11
ATOM     11  C   UNL     1      18.670 -23.057   4.542  1.00  0.00    +0.358 C 
ATOM     12  O   UNL     1      18.677 -24.166   4.037  1.00  0.00    -0.244 OA
BRANCH  11  13
ATOM     13  O   UNL     1      19.649 -22.705   5.408  1.00  0.00    -0.476 OA
ATOM     14  H   UNL     1      19.703 -23.486   6.001  1.00  0.00    +0.297 HD
ENDBRANCH  11  13
ENDBRANCH   1  11
BRANCH  10  15
ATOM     15  N   UNL     1      18.367 -21.783   1.885  1.00  0.00    -0.364 N 
ATOM     16  H   UNL     1      19.096 -22.421   2.212  1.00  0.00    +0.162 HD
BRANCH  15  17
ATOM     17  C   UNL     1      17.670 -22.293   0.715  1.00  0.00    +0.150 C 
BRANCH  17  18
ATOM     18  C   UNL     1      17.942 -23.777   0.596  1.00  0.00    -0.029 A 
ATOM     19  C   UNL     1      16.894 -24.706   0.666  1.00  0.00    +0.007 A 
ATOM     20  C   UNL     1      19.257 -24.243   0.442  1.00  0.00    +0.007 A 
ATOM     21  C   UNL     1      17.156 -26.075   0.570  1.00  0.00    +0.021 A 
ATOM     22  C   UNL     1      19.519 -25.611   0.347  1.00  0.00    +0.021 A 
ATOM     23  C   UNL     1      18.467 -26.522   0.410  1.00  0.00    +0.041 A 
ATOM     24 Cl   UNL     1      18.787 -28.208   0.295  1.00  0.00    -0.084 Cl
ENDBRANCH  17  18
ENDBRANCH  15  17
ENDBRANCH  10  15
BRANCH   6  25
ATOM     25  C   UNL     1      13.219 -17.385   4.489  1.00  0.00    +0.416 C 
ATOM     26  F   UNL     1      13.417 -16.315   5.306  1.00  0.00    -0.166 F 
ATOM     27  F   UNL     1      11.941 -17.798   4.713  1.00  0.00    -0.166 F 
ATOM     28  F   UNL     1      13.238 -16.897   3.218  1.00  0.00    -0.166 F 
ENDBRANCH   6  25
TORSDOF 6
ENDMDL
MODEL 7
REMARK VINA RESULT:    -8.291      2.546      2.944
REMARK INTER + INTRA:         -11.840
REMARK INTER:                 -11.085
REMARK INTRA:                  -0.755
REMARK UNBOUND:                -0.883
REMARK SMILES O=C(O)c1nc2ccc(C(F)(F)F)cc2nc1NCc1ccc(Cl)cc1
REMARK SMILES IDX 4 1 5 2 6 3 7 4 8 5 9 6 14 7 15 8 16 9 17 10 2 11 1 12 3 13
REMARK SMILES IDX 18 15 19 17 20 18 21 19 26 20 22 21 25 22 23 23 24 24 10 25
REMARK SMILES IDX 11 26 12 27 13 28
REMARK H PARENT 3 14 18 16
ROOT
ATOM      1  C   UNL     1      17.173 -19.185  -0.003  1.00  0.00    +0.191 A 
ATOM      2  N   UNL     1      16.145 -18.372   0.377  1.00  0.00    -0.236 NA
ATOM      3  C   UNL     1      15.663 -18.557   1.614  1.00  0.00    +0.090 A 
ATOM      4  C   UNL     1      14.618 -17.764   2.068  1.00  0.00    +0.031 A 
ATOM      5  C   UNL     1      14.088 -17.921   3.350  1.00  0.00    +0.015 A 
ATOM      6  C   UNL     1      14.605 -18.899   4.204  1.00  0.00    +0.058 A 
ATOM      7  C   UNL     1      15.667 -19.694   3.746  1.00  0.00    +0.043 A 
ATOM      8  C   UNL     1      16.200 -19.543   2.471  1.00  0.00    +0.092 A 
ATOM      9  N   UNL     1      17.214 -20.339   2.081  1.00  0.00    -0.227 NA
ATOM     10  C   UNL     1      17.719 -20.173   0.832  1.00  0.00    +0.160 A 
ENDROOT
BRANCH   1  11
ATOM     11  C   UNL     1      17.681 -18.932  -1.383  1.00  0.00    +0.358 C 
ATOM     12  O   UNL     1      17.683 -19.720  -2.312  1.00  0.00    -0.244 OA
BRANCH  11  13
ATOM     13  O   UNL     1      18.104 -17.661  -1.579  1.00  0.00    -0.476 OA
ATOM     14  H   UNL     1      18.952 -17.637  -1.083  1.00  0.00    +0.297 HD
ENDBRANCH  11  13
ENDBRANCH   1  11
BRANCH  10  15
ATOM     15  N   UNL     1      18.697 -21.078   0.389  1.00  0.00    -0.364 N 
ATOM     16  H   UNL     1      19.400 -21.206   1.120  1.00  0.00    +0.162 HD
BRANCH  15  17
ATOM     17  C   UNL     1      18.194 -22.344  -0.121  1.00  0.00    +0.150 C 
BRANCH  17  18
ATOM     18  C   UNL     1      19.245 -22.958  -1.020  1.00  0.00    -0.029 A 
ATOM     19  C   UNL     1      19.420 -22.501  -2.335  1.00  0.00    +0.007 A 
ATOM     20  C   UNL     1      20.040 -24.016  -0.555  1.00  0.00    +0.007 A 
ATOM     21  C   UNL     1      20.383 -23.083  -3.163  1.00  0.00    +0.021 A 
ATOM     22  C   UNL     1      21.001 -24.600  -1.383  1.00  0.00    +0.021 A 
ATOM     23  C   UNL     1      21.170 -24.129  -2.683  1.00  0.00    +0.041 A 
ATOM     24 Cl   UNL     1      22.353 -24.846  -3.706  1.00  0.00    -0.084 Cl
ENDBRANCH  17  18
ENDBRANCH  15  17
ENDBRANCH  10  15
BRANCH   6  25
ATOM     25  C   UNL     1      14.068 -19.077   5.603  1.00  0.00    +0.416 C 
ATOM     26  F   UNL     1      14.232 -20.349   6.057  1.00  0.00    -0.166 F 
ATOM     27  F   UNL     1      12.736 -18.813   5.696  1.00  0.00    -0.166 F 
ATOM     28  F   UNL     1      14.674 -18.271   6.517  1.00  0.00    -0.166 F 
ENDBRANCH   6  25
TORSDOF 6
ENDMDL
MODEL 8
REMARK VINA RESULT:    -8.208      4.116      6.997
REMARK INTER + INTRA:         -11.731
REMARK INTER:                 -11.020
REMARK INTRA:                  -0.711
REMARK UNBOUND:                -0.883
REMARK SMILES O=C(O)c1nc2ccc(C(F)(F)F)cc2nc1NCc1ccc(Cl)cc1
REMARK SMILES IDX 4 1 5 2 6 3 7 4 8 5 9 6 14 7 15 8 16 9 17 10 2 11 1 12 3 13
REMARK SMILES IDX 18 15 19 17 20 18 21 19 26 20 22 21 25 22 23 23 24 24 10 25
REMARK SMILES IDX 11 26 12 27 13 28
REMARK H PARENT 3 14 18 16
ROOT
ATOM      1  C   UNL     1      17.922 -20.369  -0.720  1.00  0.00    +0.191 A 
ATOM      2  N   UNL     1      19.094 -21.067  -0.710  1.00  0.00    -0.236 NA
ATOM      3  C   UNL     1      19.365 -21.767   0.400  1.00  0.00    +0.090 A 
ATOM      4  C   UNL     1      20.540 -22.502   0.477  1.00  0.00    +0.031 A 
ATOM      5  C   UNL     1      20.858 -23.247   1.615  1.00  0.00    +0.015 A 
ATOM      6  C   UNL     1      19.990 -23.258   2.709  1.00  0.00    +0.058 A 
ATOM      7  C   UNL     1      18.798 -22.520   2.625  1.00  0.00    +0.043 A 
ATOM      8  C   UNL     1      18.474 -21.777   1.496  1.00  0.00    +0.092 A 
ATOM      9  N   UNL     1      17.321 -21.081   1.473  1.00  0.00    -0.227 NA
ATOM     10  C   UNL     1      17.025 -20.363   0.360  1.00  0.00    +0.160 A 
ENDROOT
BRANCH   1  11
ATOM     11  C   UNL     1      17.663 -19.617  -1.982  1.00  0.00    +0.358 C 
ATOM     12  O   UNL     1      17.655 -18.406  -2.116  1.00  0.00    -0.244 OA
BRANCH  11  13
ATOM     13  O   UNL     1      17.495 -20.414  -3.063  1.00  0.00    -0.476 OA
ATOM     14  H   UNL     1      16.561 -20.705  -2.974  1.00  0.00    +0.297 HD
ENDBRANCH  11  13
ENDBRANCH   1  11
BRANCH  10  15
ATOM     15  N   UNL     1      15.880 -19.549   0.383  1.00  0.00    -0.364 N 
ATOM     16  H   UNL     1      15.099 -20.071   0.789  1.00  0.00    +0.162 HD
BRANCH  15  17
ATOM     17  C   UNL     1      16.051 -18.243   1.000  1.00  0.00    +0.150 C 
BRANCH  17  18
ATOM     18  C   UNL     1      15.212 -18.185   2.257  1.00  0.00    -0.029 A 
ATOM     19  C   UNL     1      15.383 -19.132   3.278  1.00  0.00    +0.007 A 
ATOM     20  C   UNL     1      14.227 -17.196   2.403  1.00  0.00    +0.007 A 
ATOM     21  C   UNL     1      14.593 -19.079   4.430  1.00  0.00    +0.021 A 
ATOM     22  C   UNL     1      13.436 -17.145   3.553  1.00  0.00    +0.021 A 
ATOM     23  C   UNL     1      13.624 -18.086   4.563  1.00  0.00    +0.041 A 
ATOM     24 Cl   UNL     1      12.651 -18.026   5.980  1.00  0.00    -0.084 Cl
ENDBRANCH  17  18
ENDBRANCH  15  17
ENDBRANCH  10  15
BRANCH   6  25
ATOM     25  C   UNL     1      20.297 -24.071   3.943  1.00  0.00    +0.416 C 
ATOM     26  F   UNL     1      20.755 -25.315   3.637  1.00  0.00    -0.166 F 
ATOM     27  F   UNL     1      19.207 -24.257   4.738  1.00  0.00    -0.166 F 
ATOM     28  F   UNL     1      21.246 -23.504   4.737  1.00  0.00    -0.166 F 
ENDBRANCH   6  25
TORSDOF 6
ENDMDL
MODEL 9
REMARK VINA RESULT:    -8.073      3.900      4.720
REMARK INTER + INTRA:         -11.551
REMARK INTER:                 -10.689
REMARK INTRA:                  -0.862
REMARK UNBOUND:                -0.883
REMARK SMILES O=C(O)c1nc2ccc(C(F)(F)F)cc2nc1NCc1ccc(Cl)cc1
REMARK SMILES IDX 4 1 5 2 6 3 7 4 8 5 9 6 14 7 15 8 16 9 17 10 2 11 1 12 3 13
REMARK SMILES IDX 18 15 19 17 20 18 21 19 26 20 22 21 25 22 23 23 24 24 10 25
REMARK SMILES IDX 11 26 12 27 13 28
REMARK H PARENT 3 14 18 16
ROOT
ATOM      1  C   UNL     1      17.362 -19.950  -0.236  1.00  0.00    +0.191 A 
ATOM      2  N   UNL     1      16.682 -19.214   0.691  1.00  0.00    -0.236 NA
ATOM      3  C   UNL     1      16.478 -19.793   1.883  1.00  0.00    +0.090 A 
ATOM      4  C   UNL     1      15.795 -19.101   2.873  1.00  0.00    +0.031 A 
ATOM      5  C   UNL     1      15.564 -19.667   4.128  1.00  0.00    +0.015 A 
ATOM      6  C   UNL     1      16.015 -20.959   4.406  1.00  0.00    +0.058 A 
ATOM      7  C   UNL     1      16.713 -21.654   3.406  1.00  0.00    +0.043 A 
ATOM      8  C   UNL     1      16.948 -21.098   2.154  1.00  0.00    +0.092 A 
ATOM      9  N   UNL     1      17.615 -21.813   1.228  1.00  0.00    -0.227 NA
ATOM     10  C   UNL     1      17.833 -21.248   0.013  1.00  0.00    +0.160 A 
ENDROOT
BRANCH   1  11
ATOM     11  C   UNL     1      17.573 -19.256  -1.539  1.00  0.00    +0.358 C 
ATOM     12  O   UNL     1      17.989 -18.122  -1.699  1.00  0.00    -0.244 OA
BRANCH  11  13
ATOM     13  O   UNL     1      17.326 -20.040  -2.615  1.00  0.00    -0.476 OA
ATOM     14  H   UNL     1      17.033 -20.883  -2.205  1.00  0.00    +0.297 HD
ENDBRANCH  11  13
ENDBRANCH   1  11
BRANCH  10  15
ATOM     15  N   UNL     1      18.428 -22.038  -0.985  1.00  0.00    -0.364 N 
ATOM     16  H   UNL     1      18.016 -21.807  -1.893  1.00  0.00    +0.162 HD
BRANCH  15  17
ATOM     17  C   UNL     1      19.882 -22.018  -1.017  1.00  0.00    +0.150 C 
BRANCH  17  18
ATOM     18  C   UNL     1      20.337 -22.098  -2.458  1.00  0.00    -0.029 A 
ATOM     19  C   UNL     1      21.548 -21.515  -2.861  1.00  0.00    +0.007 A 
ATOM     20  C   UNL     1      19.535 -22.735  -3.417  1.00  0.00    +0.007 A 
ATOM     21  C   UNL     1      21.954 -21.580  -4.196  1.00  0.00    +0.021 A 
ATOM     22  C   UNL     1      19.940 -22.799  -4.752  1.00  0.00    +0.021 A 
ATOM     23  C   UNL     1      21.149 -22.223  -5.135  1.00  0.00    +0.041 A 
ATOM     24 Cl   UNL     1      21.650 -22.300  -6.779  1.00  0.00    -0.084 Cl
ENDBRANCH  17  18
ENDBRANCH  15  17
ENDBRANCH  10  15
BRANCH   6  25
ATOM     25  C   UNL     1      15.799 -21.589   5.761  1.00  0.00    +0.416 C 
ATOM     26  F   UNL     1      16.445 -22.780   5.883  1.00  0.00    -0.166 F 
ATOM     27  F   UNL     1      14.488 -21.844   6.022  1.00  0.00    -0.166 F 
ATOM     28  F   UNL     1      16.242 -20.814   6.789  1.00  0.00    -0.166 F 
ENDBRANCH   6  25
TORSDOF 6
ENDMDL
