MODEL 1
REMARK VINA RESULT:    -8.687      0.000      0.000
REMARK INTER + INTRA:         -10.790
REMARK INTER:                 -10.210
REMARK INTRA:                  -0.580
REMARK UNBOUND:                -0.580
REMARK SMILES C=C(C)C(=O)Nc1cc(C(F)(F)F)cc2c(=O)nc(N3CCC4(CC3)OC[C@H](C)O4)sc12
REMARK SMILES IDX 7 1 8 2 9 3 14 4 15 5 16 6 17 7 18 8 19 9 20 10 21 11 22 12
REMARK SMILES IDX 23 13 24 14 25 15 26 16 27 17 28 18 29 19 30 20 31 21 32 22
REMARK SMILES IDX 6 23 4 24 5 25 2 27 1 28 3 29 10 30 11 31 12 32 13 33
REMARK H PARENT 6 26
ROOT
ATOM      1  C   UNL     1      17.392 -20.983   2.535  1.00  0.00    +0.060 A 
ATOM      2  C   UNL     1      16.672 -20.180   1.640  1.00  0.00    +0.040 A 
ATOM      3  C   UNL     1      16.950 -20.191   0.263  1.00  0.00    +0.058 A 
ATOM      4  C   UNL     1      17.964 -21.030  -0.213  1.00  0.00    +0.028 A 
ATOM      5  C   UNL     1      18.698 -21.826   0.677  1.00  0.00    +0.062 A 
ATOM      6  C   UNL     1      19.764 -22.704   0.153  1.00  0.00    +0.281 C 
ATOM      7  O   UNL     1      19.656 -23.104  -1.001  1.00  0.00    -0.267 OA
ATOM      8  N   UNL     1      20.862 -22.972   0.921  1.00  0.00    -0.181 NA
ATOM      9  C   UNL     1      20.816 -23.103   2.209  1.00  0.00    +0.189 C 
ATOM     10  N   UNL     1      21.970 -23.388   2.932  1.00  0.00    -0.348 N 
ATOM     11  C   UNL     1      21.983 -23.840   4.329  1.00  0.00    +0.124 C 
ATOM     12  C   UNL     1      23.215 -24.684   4.624  1.00  0.00    +0.087 C 
ATOM     13  C   UNL     1      24.493 -23.884   4.385  1.00  0.00    +0.172 C 
ATOM     14  C   UNL     1      24.352 -22.880   3.238  1.00  0.00    +0.087 C 
ATOM     15  C   UNL     1      23.277 -23.327   2.258  1.00  0.00    +0.124 C 
ATOM     16  O   UNL     1      25.555 -24.809   4.091  1.00  0.00    -0.347 OA
ATOM     17  C   UNL     1      26.689 -24.297   4.790  1.00  0.00    +0.195 C 
ATOM     18  C   UNL     1      26.090 -23.669   6.026  1.00  0.00    +0.144 C 
ATOM     19  C   UNL     1      25.853 -24.674   7.145  1.00  0.00    +0.041 C 
ATOM     20  O   UNL     1      24.832 -23.152   5.579  1.00  0.00    -0.344 OA
ATOM     21  S   UNL     1      19.318 -22.912   3.120  1.00  0.00    -0.096 SA
ATOM     22  C   UNL     1      18.419 -21.817   2.042  1.00  0.00    +0.067 A 
ENDROOT
BRANCH   1  23
ATOM     23  N   UNL     1      17.123 -21.008   3.924  1.00  0.00    -0.321 N 
ATOM     24  C   UNL     1      16.023 -21.525   4.572  1.00  0.00    +0.250 C 
ATOM     25  O   UNL     1      15.024 -22.009   4.055  1.00  0.00    -0.269 OA
ATOM     26  H   UNL     1      17.821 -20.552   4.501  1.00  0.00    +0.170 HD
BRANCH  24  27
ATOM     27  C   UNL     1      16.092 -21.382   6.062  1.00  0.00    +0.007 C 
ATOM     28  C   UNL     1      15.729 -22.389   6.874  1.00  0.00    +0.018 C 
ATOM     29  C   UNL     1      16.525 -20.037   6.557  1.00  0.00    +0.050 C 
ENDBRANCH  24  27
ENDBRANCH   1  23
BRANCH   3  30
ATOM     30  C   UNL     1      16.138 -19.336  -0.682  1.00  0.00    +0.416 C 
ATOM     31  F   UNL     1      15.158 -20.031  -1.323  1.00  0.00    -0.166 F 
ATOM     32  F   UNL     1      16.893 -18.771  -1.664  1.00  0.00    -0.166 F 
ATOM     33  F   UNL     1      15.516 -18.309  -0.043  1.00  0.00    -0.166 F 
ENDBRANCH   3  30
TORSDOF 3
ENDMDL
MODEL 2
REMARK VINA RESULT:    -8.655      4.029      7.525
REMARK INTER + INTRA:         -10.752
REMARK INTER:                 -10.140
REMARK INTRA:                  -0.612
REMARK UNBOUND:                -0.580
REMARK SMILES C=C(C)C(=O)Nc1cc(C(F)(F)F)cc2c(=O)nc(N3CCC4(CC3)OC[C@H](C)O4)sc12
REMARK SMILES IDX 7 1 8 2 9 3 14 4 15 5 16 6 17 7 18 8 19 9 20 10 21 11 22 12
REMARK SMILES IDX 23 13 24 14 25 15 26 16 27 17 28 18 29 19 30 20 31 21 32 22
REMARK SMILES IDX 6 23 4 24 5 25 2 27 1 28 3 29 10 30 11 31 12 32 13 33
REMARK H PARENT 6 26
ROOT
ATOM      1  C   UNL     1      19.256 -22.675   3.083  1.00  0.00    +0.060 A 
ATOM      2  C   UNL     1      18.401 -22.349   4.144  1.00  0.00    +0.040 A 
ATOM      3  C   UNL     1      17.006 -22.312   3.975  1.00  0.00    +0.058 A 
ATOM      4  C   UNL     1      16.473 -22.616   2.718  1.00  0.00    +0.028 A 
ATOM      5  C   UNL     1      17.321 -22.928   1.647  1.00  0.00    +0.062 A 
ATOM      6  C   UNL     1      16.736 -23.245   0.328  1.00  0.00    +0.281 C 
ATOM      7  O   UNL     1      15.604 -23.718   0.306  1.00  0.00    -0.267 OA
ATOM      8  N   UNL     1      17.420 -22.930  -0.812  1.00  0.00    -0.181 NA
ATOM      9  C   UNL     1      18.711 -22.990  -0.909  1.00  0.00    +0.189 C 
ATOM     10  N   UNL     1      19.345 -22.667  -2.103  1.00  0.00    -0.348 N 
ATOM     11  C   UNL     1      20.748 -22.978  -2.407  1.00  0.00    +0.124 C 
ATOM     12  C   UNL     1      20.965 -23.139  -3.905  1.00  0.00    +0.087 C 
ATOM     13  C   UNL     1      20.604 -21.856  -4.649  1.00  0.00    +0.172 C 
ATOM     14  C   UNL     1      19.447 -21.100  -3.990  1.00  0.00    +0.087 C 
ATOM     15  C   UNL     1      18.568 -22.051  -3.190  1.00  0.00    +0.124 C 
ATOM     16  O   UNL     1      20.249 -22.202  -5.999  1.00  0.00    -0.347 OA
ATOM     17  C   UNL     1      20.842 -21.184  -6.805  1.00  0.00    +0.195 C 
ATOM     18  C   UNL     1      22.106 -20.830  -6.057  1.00  0.00    +0.144 C 
ATOM     19  C   UNL     1      23.266 -21.763  -6.381  1.00  0.00    +0.041 C 
ATOM     20  O   UNL     1      21.749 -20.980  -4.679  1.00  0.00    -0.344 OA
ATOM     21  S   UNL     1      19.733 -23.458   0.450  1.00  0.00    -0.096 SA
ATOM     22  C   UNL     1      18.703 -22.968   1.817  1.00  0.00    +0.067 A 
ENDROOT
BRANCH   1  23
ATOM     23  N   UNL     1      20.662 -22.738   3.226  1.00  0.00    -0.321 N 
ATOM     24  C   UNL     1      21.422 -23.769   3.733  1.00  0.00    +0.250 C 
ATOM     25  O   UNL     1      21.014 -24.814   4.223  1.00  0.00    -0.269 OA
ATOM     26  H   UNL     1      21.156 -21.897   2.952  1.00  0.00    +0.170 HD
BRANCH  24  27
ATOM     27  C   UNL     1      22.893 -23.481   3.716  1.00  0.00    +0.007 C 
ATOM     28  C   UNL     1      23.719 -24.035   4.620  1.00  0.00    +0.018 C 
ATOM     29  C   UNL     1      23.344 -22.500   2.679  1.00  0.00    +0.050 C 
ENDBRANCH  24  27
ENDBRANCH   1  23
BRANCH   3  30
ATOM     30  C   UNL     1      16.108 -21.987   5.145  1.00  0.00    +0.416 C 
ATOM     31  F   UNL     1      16.231 -22.869   6.176  1.00  0.00    -0.166 F 
ATOM     32  F   UNL     1      14.788 -21.987   4.814  1.00  0.00    -0.166 F 
ATOM     33  F   UNL     1      16.368 -20.759   5.669  1.00  0.00    -0.166 F 
ENDBRANCH   3  30
TORSDOF 3
ENDMDL
MODEL 3
REMARK VINA RESULT:    -8.448      4.953      6.590
REMARK INTER + INTRA:         -10.510
REMARK INTER:                  -9.918
REMARK INTRA:                  -0.592
REMARK UNBOUND:                -0.580
REMARK SMILES C=C(C)C(=O)Nc1cc(C(F)(F)F)cc2c(=O)nc(N3CCC4(CC3)OC[C@H](C)O4)sc12
REMARK SMILES IDX 7 1 8 2 9 3 14 4 15 5 16 6 17 7 18 8 19 9 20 10 21 11 22 12
REMARK SMILES IDX 23 13 24 14 25 15 26 16 27 17 28 18 29 19 30 20 31 21 32 22
REMARK SMILES IDX 6 23 4 24 5 25 2 27 1 28 3 29 10 30 11 31 12 32 13 33
REMARK H PARENT 6 26
ROOT
ATOM      1  C   UNL     1      20.434 -21.979  -4.505  1.00  0.00    +0.060 A 
ATOM      2  C   UNL     1      20.253 -21.346  -5.742  1.00  0.00    +0.040 A 
ATOM      3  C   UNL     1      21.345 -21.023  -6.564  1.00  0.00    +0.058 A 
ATOM      4  C   UNL     1      22.634 -21.351  -6.131  1.00  0.00    +0.028 A 
ATOM      5  C   UNL     1      22.826 -21.971  -4.888  1.00  0.00    +0.062 A 
ATOM      6  C   UNL     1      24.196 -22.307  -4.450  1.00  0.00    +0.281 C 
ATOM      7  O   UNL     1      25.036 -22.518  -5.320  1.00  0.00    -0.267 OA
ATOM      8  N   UNL     1      24.507 -22.292  -3.120  1.00  0.00    -0.181 NA
ATOM      9  C   UNL     1      23.678 -22.648  -2.190  1.00  0.00    +0.189 C 
ATOM     10  N   UNL     1      24.061 -22.621  -0.854  1.00  0.00    -0.348 N 
ATOM     11  C   UNL     1      23.319 -23.269   0.235  1.00  0.00    +0.124 C 
ATOM     12  C   UNL     1      24.244 -23.654   1.380  1.00  0.00    +0.087 C 
ATOM     13  C   UNL     1      24.935 -22.423   1.961  1.00  0.00    +0.172 C 
ATOM     14  C   UNL     1      25.222 -21.356   0.901  1.00  0.00    +0.087 C 
ATOM     15  C   UNL     1      25.334 -21.984  -0.481  1.00  0.00    +0.124 C 
ATOM     16  O   UNL     1      26.169 -22.843   2.570  1.00  0.00    -0.347 OA
ATOM     17  C   UNL     1      26.255 -22.087   3.777  1.00  0.00    +0.195 C 
ATOM     18  C   UNL     1      24.815 -21.934   4.205  1.00  0.00    +0.144 C 
ATOM     19  C   UNL     1      24.301 -23.132   4.992  1.00  0.00    +0.041 C 
ATOM     20  O   UNL     1      24.095 -21.833   2.971  1.00  0.00    -0.344 OA
ATOM     21  S   UNL     1      22.029 -23.162  -2.549  1.00  0.00    -0.096 SA
ATOM     22  C   UNL     1      21.742 -22.294  -4.076  1.00  0.00    +0.067 A 
ENDROOT
BRANCH   1  23
ATOM     23  N   UNL     1      19.353 -22.334  -3.663  1.00  0.00    -0.321 N 
ATOM     24  C   UNL     1      18.786 -21.598  -2.646  1.00  0.00    +0.250 C 
ATOM     25  O   UNL     1      19.158 -20.509  -2.229  1.00  0.00    -0.269 OA
ATOM     26  H   UNL     1      18.984 -23.266  -3.815  1.00  0.00    +0.170 HD
BRANCH  24  27
ATOM     27  C   UNL     1      17.643 -22.299  -1.977  1.00  0.00    +0.007 C 
ATOM     28  C   UNL     1      16.379 -22.125  -2.398  1.00  0.00    +0.018 C 
ATOM     29  C   UNL     1      18.009 -23.134  -0.789  1.00  0.00    +0.050 C 
ENDBRANCH  24  27
ENDBRANCH   1  23
BRANCH   3  30
ATOM     30  C   UNL     1      21.117 -20.367  -7.906  1.00  0.00    +0.416 C 
ATOM     31  F   UNL     1      19.837 -19.939  -8.082  1.00  0.00    -0.166 F 
ATOM     32  F   UNL     1      21.376 -21.200  -8.951  1.00  0.00    -0.166 F 
ATOM     33  F   UNL     1      21.907 -19.274  -8.088  1.00  0.00    -0.166 F 
ENDBRANCH   3  30
TORSDOF 3
ENDMDL
MODEL 4
REMARK VINA RESULT:    -8.204      4.535      7.484
REMARK INTER + INTRA:         -10.222
REMARK INTER:                  -9.628
REMARK INTRA:                  -0.594
REMARK UNBOUND:                -0.580
REMARK SMILES C=C(C)C(=O)Nc1cc(C(F)(F)F)cc2c(=O)nc(N3CCC4(CC3)OC[C@H](C)O4)sc12
REMARK SMILES IDX 7 1 8 2 9 3 14 4 15 5 16 6 17 7 18 8 19 9 20 10 21 11 22 12
REMARK SMILES IDX 23 13 24 14 25 15 26 16 27 17 28 18 29 19 30 20 31 21 32 22
REMARK SMILES IDX 6 23 4 24 5 25 2 27 1 28 3 29 10 30 11 31 12 32 13 33
REMARK H PARENT 6 26
ROOT
ATOM      1  C   UNL     1      19.507 -21.565   1.229  1.00  0.00    +0.060 A 
ATOM      2  C   UNL     1      18.571 -20.906   2.038  1.00  0.00    +0.040 A 
ATOM      3  C   UNL     1      17.297 -20.566   1.554  1.00  0.00    +0.058 A 
ATOM      4  C   UNL     1      16.965 -20.903   0.238  1.00  0.00    +0.028 A 
ATOM      5  C   UNL     1      17.899 -21.549  -0.584  1.00  0.00    +0.062 A 
ATOM      6  C   UNL     1      17.528 -21.895  -1.971  1.00  0.00    +0.281 C 
ATOM      7  O   UNL     1      16.340 -22.087  -2.211  1.00  0.00    -0.267 OA
ATOM      8  N   UNL     1      18.483 -21.908  -2.947  1.00  0.00    -0.181 NA
ATOM      9  C   UNL     1      19.706 -22.283  -2.743  1.00  0.00    +0.189 C 
ATOM     10  N   UNL     1      20.628 -22.283  -3.783  1.00  0.00    -0.348 N 
ATOM     11  C   UNL     1      21.934 -22.954  -3.734  1.00  0.00    +0.124 C 
ATOM     12  C   UNL     1      22.396 -23.364  -5.125  1.00  0.00    +0.087 C 
ATOM     13  C   UNL     1      22.537 -22.145  -6.034  1.00  0.00    +0.172 C 
ATOM     14  C   UNL     1      21.507 -21.056  -5.719  1.00  0.00    +0.087 C 
ATOM     15  C   UNL     1      20.271 -21.655  -5.065  1.00  0.00    +0.124 C 
ATOM     16  O   UNL     1      22.381 -22.578  -7.397  1.00  0.00    -0.347 OA
ATOM     17  C   UNL     1      23.366 -21.847  -8.126  1.00  0.00    +0.195 C 
ATOM     18  C   UNL     1      24.503 -21.703  -7.143  1.00  0.00    +0.144 C 
ATOM     19  C   UNL     1      25.421 -22.917  -7.117  1.00  0.00    +0.041 C 
ATOM     20  O   UNL     1      23.851 -21.575  -5.874  1.00  0.00    -0.344 OA
ATOM     21  S   UNL     1      20.280 -22.789  -1.154  1.00  0.00    -0.096 SA
ATOM     22  C   UNL     1      19.161 -21.889  -0.101  1.00  0.00    +0.067 A 
ENDROOT
BRANCH   1  23
ATOM     23  N   UNL     1      20.791 -21.937   1.693  1.00  0.00    -0.321 N 
ATOM     24  C   UNL     1      21.141 -23.041   2.439  1.00  0.00    +0.250 C 
ATOM     25  O   UNL     1      20.387 -23.886   2.904  1.00  0.00    -0.269 OA
ATOM     26  H   UNL     1      21.530 -21.280   1.473  1.00  0.00    +0.170 HD
BRANCH  24  27
ATOM     27  C   UNL     1      22.608 -23.112   2.735  1.00  0.00    +0.007 C 
ATOM     28  C   UNL     1      23.115 -24.088   3.508  1.00  0.00    +0.018 C 
ATOM     29  C   UNL     1      23.432 -21.998   2.168  1.00  0.00    +0.050 C 
ENDBRANCH  24  27
ENDBRANCH   1  23
BRANCH   3  30
ATOM     30  C   UNL     1      16.299 -19.882   2.459  1.00  0.00    +0.416 C 
ATOM     31  F   UNL     1      15.310 -19.240   1.777  1.00  0.00    -0.166 F 
ATOM     32  F   UNL     1      16.870 -18.939   3.258  1.00  0.00    -0.166 F 
ATOM     33  F   UNL     1      15.674 -20.757   3.292  1.00  0.00    -0.166 F 
ENDBRANCH   3  30
TORSDOF 3
ENDMDL
MODEL 5
REMARK VINA RESULT:    -8.167      4.276      5.863
REMARK INTER + INTRA:         -10.179
REMARK INTER:                  -9.612
REMARK INTRA:                  -0.567
REMARK UNBOUND:                -0.580
REMARK SMILES C=C(C)C(=O)Nc1cc(C(F)(F)F)cc2c(=O)nc(N3CCC4(CC3)OC[C@H](C)O4)sc12
REMARK SMILES IDX 7 1 8 2 9 3 14 4 15 5 16 6 17 7 18 8 19 9 20 10 21 11 22 12
REMARK SMILES IDX 23 13 24 14 25 15 26 16 27 17 28 18 29 19 30 20 31 21 32 22
REMARK SMILES IDX 6 23 4 24 5 25 2 27 1 28 3 29 10 30 11 31 12 32 13 33
REMARK H PARENT 6 26
ROOT
ATOM      1  C   UNL     1      20.089 -21.949  -3.486  1.00  0.00    +0.060 A 
ATOM      2  C   UNL     1      19.957 -21.885  -4.880  1.00  0.00    +0.040 A 
ATOM      3  C   UNL     1      20.704 -22.724  -5.724  1.00  0.00    +0.058 A 
ATOM      4  C   UNL     1      21.589 -23.643  -5.148  1.00  0.00    +0.028 A 
ATOM      5  C   UNL     1      21.738 -23.703  -3.756  1.00  0.00    +0.062 A 
ATOM      6  C   UNL     1      22.679 -24.680  -3.170  1.00  0.00    +0.281 C 
ATOM      7  O   UNL     1      22.904 -25.705  -3.805  1.00  0.00    -0.267 OA
ATOM      8  N   UNL     1      23.325 -24.385  -2.003  1.00  0.00    -0.181 NA
ATOM      9  C   UNL     1      22.786 -23.704  -1.041  1.00  0.00    +0.189 C 
ATOM     10  N   UNL     1      23.495 -23.448   0.127  1.00  0.00    -0.348 N 
ATOM     11  C   UNL     1      22.892 -22.953   1.371  1.00  0.00    +0.124 C 
ATOM     12  C   UNL     1      23.694 -23.397   2.587  1.00  0.00    +0.087 C 
ATOM     13  C   UNL     1      25.123 -22.865   2.522  1.00  0.00    +0.172 C 
ATOM     14  C   UNL     1      25.652 -22.774   1.087  1.00  0.00    +0.087 C 
ATOM     15  C   UNL     1      24.931 -23.764   0.183  1.00  0.00    +0.124 C 
ATOM     16  O   UNL     1      25.965 -23.738   3.294  1.00  0.00    -0.347 OA
ATOM     17  C   UNL     1      26.856 -22.866   3.989  1.00  0.00    +0.195 C 
ATOM     18  C   UNL     1      26.018 -21.636   4.248  1.00  0.00    +0.144 C 
ATOM     19  C   UNL     1      25.159 -21.758   5.499  1.00  0.00    +0.041 C 
ATOM     20  O   UNL     1      25.170 -21.544   3.098  1.00  0.00    -0.344 OA
ATOM     21  S   UNL     1      21.152 -23.051  -1.156  1.00  0.00    -0.096 SA
ATOM     22  C   UNL     1      20.994 -22.874  -2.920  1.00  0.00    +0.067 A 
ENDROOT
BRANCH   1  23
ATOM     23  N   UNL     1      19.338 -21.132  -2.609  1.00  0.00    -0.321 N 
ATOM     24  C   UNL     1      18.073 -21.352  -2.110  1.00  0.00    +0.250 C 
ATOM     25  O   UNL     1      17.322 -22.279  -2.388  1.00  0.00    -0.269 OA
ATOM     26  H   UNL     1      19.785 -20.258  -2.354  1.00  0.00    +0.170 HD
BRANCH  24  27
ATOM     27  C   UNL     1      17.602 -20.265  -1.193  1.00  0.00    +0.007 C 
ATOM     28  C   UNL     1      17.658 -18.973  -1.560  1.00  0.00    +0.018 C 
ATOM     29  C   UNL     1      17.137 -20.720   0.156  1.00  0.00    +0.050 C 
ENDBRANCH  24  27
ENDBRANCH   1  23
BRANCH   3  30
ATOM     30  C   UNL     1      20.519 -22.653  -7.222  1.00  0.00    +0.416 C 
ATOM     31  F   UNL     1      20.143 -21.419  -7.656  1.00  0.00    -0.166 F 
ATOM     32  F   UNL     1      19.567 -23.512  -7.677  1.00  0.00    -0.166 F 
ATOM     33  F   UNL     1      21.660 -22.958  -7.897  1.00  0.00    -0.166 F 
ENDBRANCH   3  30
TORSDOF 3
ENDMDL
MODEL 6
REMARK VINA RESULT:    -8.055      4.526      6.514
REMARK INTER + INTRA:         -10.048
REMARK INTER:                  -9.480
REMARK INTRA:                  -0.568
REMARK UNBOUND:                -0.580
REMARK SMILES C=C(C)C(=O)Nc1cc(C(F)(F)F)cc2c(=O)nc(N3CCC4(CC3)OC[C@H](C)O4)sc12
REMARK SMILES IDX 7 1 8 2 9 3 14 4 15 5 16 6 17 7 18 8 19 9 20 10 21 11 22 12
REMARK SMILES IDX 23 13 24 14 25 15 26 16 27 17 28 18 29 19 30 20 31 21 32 22
REMARK SMILES IDX 6 23 4 24 5 25 2 27 1 28 3 29 10 30 11 31 12 32 13 33
REMARK H PARENT 6 26
ROOT
ATOM      1  C   UNL     1      16.511 -19.748   1.956  1.00  0.00    +0.060 A 
ATOM      2  C   UNL     1      15.532 -18.945   2.556  1.00  0.00    +0.040 A 
ATOM      3  C   UNL     1      15.016 -19.248   3.828  1.00  0.00    +0.058 A 
ATOM      4  C   UNL     1      15.503 -20.373   4.501  1.00  0.00    +0.028 A 
ATOM      5  C   UNL     1      16.471 -21.191   3.902  1.00  0.00    +0.062 A 
ATOM      6  C   UNL     1      16.970 -22.375   4.631  1.00  0.00    +0.281 C 
ATOM      7  O   UNL     1      16.941 -22.343   5.857  1.00  0.00    -0.267 OA
ATOM      8  N   UNL     1      17.363 -23.484   3.937  1.00  0.00    -0.181 NA
ATOM      9  C   UNL     1      17.951 -23.433   2.784  1.00  0.00    +0.189 C 
ATOM     10  N   UNL     1      18.336 -24.600   2.134  1.00  0.00    -0.348 N 
ATOM     11  C   UNL     1      19.254 -24.647   0.988  1.00  0.00    +0.124 C 
ATOM     12  C   UNL     1      19.995 -25.976   0.930  1.00  0.00    +0.087 C 
ATOM     13  C   UNL     1      19.017 -27.139   0.787  1.00  0.00    +0.172 C 
ATOM     14  C   UNL     1      17.693 -26.886   1.514  1.00  0.00    +0.087 C 
ATOM     15  C   UNL     1      17.884 -25.899   2.656  1.00  0.00    +0.124 C 
ATOM     16  O   UNL     1      19.642 -28.321   1.319  1.00  0.00    -0.347 OA
ATOM     17  C   UNL     1      19.283 -29.363   0.411  1.00  0.00    +0.195 C 
ATOM     18  C   UNL     1      19.215 -28.662  -0.925  1.00  0.00    +0.144 C 
ATOM     19  C   UNL     1      20.575 -28.541  -1.600  1.00  0.00    +0.041 C 
ATOM     20  O   UNL     1      18.726 -27.354  -0.608  1.00  0.00    -0.344 OA
ATOM     21  S   UNL     1      18.278 -21.905   1.965  1.00  0.00    -0.096 SA
ATOM     22  C   UNL     1      16.985 -20.888   2.644  1.00  0.00    +0.067 A 
ENDROOT
BRANCH   1  23
ATOM     23  N   UNL     1      17.063 -19.460   0.686  1.00  0.00    -0.321 N 
ATOM     24  C   UNL     1      16.706 -19.981  -0.538  1.00  0.00    +0.250 C 
ATOM     25  O   UNL     1      15.875 -20.854  -0.753  1.00  0.00    -0.269 OA
ATOM     26  H   UNL     1      17.845 -18.815   0.698  1.00  0.00    +0.170 HD
BRANCH  24  27
ATOM     27  C   UNL     1      17.511 -19.427  -1.674  1.00  0.00    +0.007 C 
ATOM     28  C   UNL     1      17.920 -18.147  -1.676  1.00  0.00    +0.018 C 
ATOM     29  C   UNL     1      17.759 -20.374  -2.807  1.00  0.00    +0.050 C 
ENDBRANCH  24  27
ENDBRANCH   1  23
BRANCH   3  30
ATOM     30  C   UNL     1      13.983 -18.346   4.462  1.00  0.00    +0.416 C 
ATOM     31  F   UNL     1      12.944 -19.030   5.015  1.00  0.00    -0.166 F 
ATOM     32  F   UNL     1      13.424 -17.478   3.575  1.00  0.00    -0.166 F 
ATOM     33  F   UNL     1      14.506 -17.584   5.460  1.00  0.00    -0.166 F 
ENDBRANCH   3  30
TORSDOF 3
ENDMDL
MODEL 7
REMARK VINA RESULT:    -7.790      3.742      5.798
REMARK INTER + INTRA:          -9.736
REMARK INTER:                  -9.099
REMARK INTRA:                  -0.637
REMARK UNBOUND:                -0.580
REMARK SMILES C=C(C)C(=O)Nc1cc(C(F)(F)F)cc2c(=O)nc(N3CCC4(CC3)OC[C@H](C)O4)sc12
REMARK SMILES IDX 7 1 8 2 9 3 14 4 15 5 16 6 17 7 18 8 19 9 20 10 21 11 22 12
REMARK SMILES IDX 23 13 24 14 25 15 26 16 27 17 28 18 29 19 30 20 31 21 32 22
REMARK SMILES IDX 6 23 4 24 5 25 2 27 1 28 3 29 10 30 11 31 12 32 13 33
REMARK H PARENT 6 26
ROOT
ATOM      1  C   UNL     1      17.394 -20.956   1.995  1.00  0.00    +0.060 A 
ATOM      2  C   UNL     1      16.274 -20.688   2.793  1.00  0.00    +0.040 A 
ATOM      3  C   UNL     1      16.137 -21.248   4.074  1.00  0.00    +0.058 A 
ATOM      4  C   UNL     1      17.151 -22.084   4.555  1.00  0.00    +0.028 A 
ATOM      5  C   UNL     1      18.268 -22.370   3.758  1.00  0.00    +0.062 A 
ATOM      6  C   UNL     1      19.326 -23.256   4.285  1.00  0.00    +0.281 C 
ATOM      7  O   UNL     1      19.476 -23.302   5.502  1.00  0.00    -0.267 OA
ATOM      8  N   UNL     1      20.037 -24.049   3.430  1.00  0.00    -0.181 NA
ATOM      9  C   UNL     1      20.362 -23.689   2.228  1.00  0.00    +0.189 C 
ATOM     10  N   UNL     1      21.098 -24.540   1.410  1.00  0.00    -0.348 N 
ATOM     11  C   UNL     1      21.760 -24.127   0.166  1.00  0.00    +0.124 C 
ATOM     12  C   UNL     1      22.973 -24.998  -0.129  1.00  0.00    +0.087 C 
ATOM     13  C   UNL     1      22.568 -26.462  -0.285  1.00  0.00    +0.172 C 
ATOM     14  C   UNL     1      21.390 -26.845   0.617  1.00  0.00    +0.087 C 
ATOM     15  C   UNL     1      21.322 -25.932   1.832  1.00  0.00    +0.124 C 
ATOM     16  O   UNL     1      23.706 -27.281   0.033  1.00  0.00    -0.347 OA
ATOM     17  C   UNL     1      23.684 -28.328  -0.937  1.00  0.00    +0.195 C 
ATOM     18  C   UNL     1      23.121 -27.659  -2.168  1.00  0.00    +0.144 C 
ATOM     19  C   UNL     1      24.181 -26.927  -2.981  1.00  0.00    +0.041 C 
ATOM     20  O   UNL     1      22.182 -26.710  -1.651  1.00  0.00    -0.344 OA
ATOM     21  S   UNL     1      19.883 -22.132   1.553  1.00  0.00    -0.096 SA
ATOM     22  C   UNL     1      18.404 -21.811   2.490  1.00  0.00    +0.067 A 
ENDROOT
BRANCH   1  23
ATOM     23  N   UNL     1      17.569 -20.393   0.709  1.00  0.00    -0.321 N 
ATOM     24  C   UNL     1      17.097 -20.859  -0.498  1.00  0.00    +0.250 C 
ATOM     25  O   UNL     1      16.483 -21.899  -0.697  1.00  0.00    -0.269 OA
ATOM     26  H   UNL     1      18.150 -19.562   0.684  1.00  0.00    +0.170 HD
BRANCH  24  27
ATOM     27  C   UNL     1      17.474 -19.986  -1.656  1.00  0.00    +0.007 C 
ATOM     28  C   UNL     1      17.682 -20.505  -2.878  1.00  0.00    +0.018 C 
ATOM     29  C   UNL     1      17.660 -18.536  -1.333  1.00  0.00    +0.050 C 
ENDBRANCH  24  27
ENDBRANCH   1  23
BRANCH   3  30
ATOM     30  C   UNL     1      14.932 -20.917   4.923  1.00  0.00    +0.416 C 
ATOM     31  F   UNL     1      15.243 -20.697   6.231  1.00  0.00    -0.166 F 
ATOM     32  F   UNL     1      14.000 -21.908   4.927  1.00  0.00    -0.166 F 
ATOM     33  F   UNL     1      14.292 -19.795   4.495  1.00  0.00    -0.166 F 
ENDBRANCH   3  30
TORSDOF 3
ENDMDL
MODEL 8
REMARK VINA RESULT:    -7.484      2.746      5.493
REMARK INTER + INTRA:          -9.377
REMARK INTER:                  -8.813
REMARK INTRA:                  -0.563
REMARK UNBOUND:                -0.580
REMARK SMILES C=C(C)C(=O)Nc1cc(C(F)(F)F)cc2c(=O)nc(N3CCC4(CC3)OC[C@H](C)O4)sc12
REMARK SMILES IDX 7 1 8 2 9 3 14 4 15 5 16 6 17 7 18 8 19 9 20 10 21 11 22 12
REMARK SMILES IDX 23 13 24 14 25 15 26 16 27 17 28 18 29 19 30 20 31 21 32 22
REMARK SMILES IDX 6 23 4 24 5 25 2 27 1 28 3 29 10 30 11 31 12 32 13 33
REMARK H PARENT 6 26
ROOT
ATOM      1  C   UNL     1      18.840 -22.551  -1.871  1.00  0.00    +0.060 A 
ATOM      2  C   UNL     1      17.512 -22.333  -2.262  1.00  0.00    +0.040 A 
ATOM      3  C   UNL     1      16.546 -21.883  -1.347  1.00  0.00    +0.058 A 
ATOM      4  C   UNL     1      16.931 -21.644  -0.023  1.00  0.00    +0.028 A 
ATOM      5  C   UNL     1      18.254 -21.874   0.380  1.00  0.00    +0.062 A 
ATOM      6  C   UNL     1      18.639 -21.616   1.783  1.00  0.00    +0.281 C 
ATOM      7  O   UNL     1      18.000 -20.771   2.402  1.00  0.00    -0.267 OA
ATOM      8  N   UNL     1      19.617 -22.368   2.368  1.00  0.00    -0.181 NA
ATOM      9  C   UNL     1      20.656 -22.808   1.730  1.00  0.00    +0.189 C 
ATOM     10  N   UNL     1      21.623 -23.560   2.388  1.00  0.00    -0.348 N 
ATOM     11  C   UNL     1      22.957 -23.852   1.847  1.00  0.00    +0.124 C 
ATOM     12  C   UNL     1      23.969 -24.065   2.963  1.00  0.00    +0.087 C 
ATOM     13  C   UNL     1      23.564 -25.239   3.850  1.00  0.00    +0.172 C 
ATOM     14  C   UNL     1      22.044 -25.377   3.985  1.00  0.00    +0.087 C 
ATOM     15  C   UNL     1      21.359 -24.037   3.755  1.00  0.00    +0.124 C 
ATOM     16  O   UNL     1      24.149 -25.046   5.150  1.00  0.00    -0.347 OA
ATOM     17  C   UNL     1      24.595 -26.342   5.546  1.00  0.00    +0.195 C 
ATOM     18  C   UNL     1      25.001 -26.991   4.245  1.00  0.00    +0.144 C 
ATOM     19  C   UNL     1      26.419 -26.631   3.821  1.00  0.00    +0.041 C 
ATOM     20  O   UNL     1      24.073 -26.465   3.289  1.00  0.00    -0.344 OA
ATOM     21  S   UNL     1      20.898 -22.506   0.010  1.00  0.00    -0.096 SA
ATOM     22  C   UNL     1      19.212 -22.316  -0.529  1.00  0.00    +0.067 A 
ENDROOT
BRANCH   1  23
ATOM     23  N   UNL     1      19.841 -22.986  -2.772  1.00  0.00    -0.321 N 
ATOM     24  C   UNL     1      20.356 -22.320  -3.862  1.00  0.00    +0.250 C 
ATOM     25  O   UNL     1      19.993 -21.236  -4.302  1.00  0.00    -0.269 OA
ATOM     26  H   UNL     1      20.186 -23.924  -2.604  1.00  0.00    +0.170 HD
BRANCH  24  27
ATOM     27  C   UNL     1      21.419 -23.094  -4.580  1.00  0.00    +0.007 C 
ATOM     28  C   UNL     1      21.898 -24.245  -4.079  1.00  0.00    +0.018 C 
ATOM     29  C   UNL     1      21.938 -22.461  -5.834  1.00  0.00    +0.050 C 
ENDBRANCH  24  27
ENDBRANCH   1  23
BRANCH   3  30
ATOM     30  C   UNL     1      15.128 -21.629  -1.804  1.00  0.00    +0.416 C 
ATOM     31  F   UNL     1      14.251 -22.581  -1.383  1.00  0.00    -0.166 F 
ATOM     32  F   UNL     1      15.010 -21.590  -3.159  1.00  0.00    -0.166 F 
ATOM     33  F   UNL     1      14.644 -20.443  -1.346  1.00  0.00    -0.166 F 
ENDBRANCH   3  30
TORSDOF 3
ENDMDL
MODEL 9
REMARK VINA RESULT:    -7.412      4.959      7.094
REMARK INTER + INTRA:          -9.292
REMARK INTER:                  -8.641
REMARK INTRA:                  -0.651
REMARK UNBOUND:                -0.580
REMARK SMILES C=C(C)C(=O)Nc1cc(C(F)(F)F)cc2c(=O)nc(N3CCC4(CC3)OC[C@H](C)O4)sc12
REMARK SMILES IDX 7 1 8 2 9 3 14 4 15 5 16 6 17 7 18 8 19 9 20 10 21 11 22 12
REMARK SMILES IDX 23 13 24 14 25 15 26 16 27 17 28 18 29 19 30 20 31 21 32 22
REMARK SMILES IDX 6 23 4 24 5 25 2 27 1 28 3 29 10 30 11 31 12 32 13 33
REMARK H PARENT 6 26
ROOT
ATOM      1  C   UNL     1      17.480 -23.383   1.017  1.00  0.00    +0.060 A 
ATOM      2  C   UNL     1      16.974 -22.849   2.209  1.00  0.00    +0.040 A 
ATOM      3  C   UNL     1      16.869 -21.461   2.402  1.00  0.00    +0.058 A 
ATOM      4  C   UNL     1      17.276 -20.606   1.372  1.00  0.00    +0.028 A 
ATOM      5  C   UNL     1      17.797 -21.131   0.182  1.00  0.00    +0.062 A 
ATOM      6  C   UNL     1      18.221 -20.209  -0.892  1.00  0.00    +0.281 C 
ATOM      7  O   UNL     1      17.669 -19.115  -0.953  1.00  0.00    -0.267 OA
ATOM      8  N   UNL     1      19.252 -20.556  -1.717  1.00  0.00    -0.181 NA
ATOM      9  C   UNL     1      19.476 -21.772  -2.106  1.00  0.00    +0.189 C 
ATOM     10  N   UNL     1      20.538 -22.058  -2.957  1.00  0.00    -0.348 N 
ATOM     11  C   UNL     1      20.703 -23.325  -3.681  1.00  0.00    +0.124 C 
ATOM     12  C   UNL     1      21.489 -23.126  -4.969  1.00  0.00    +0.087 C 
ATOM     13  C   UNL     1      22.883 -22.575  -4.677  1.00  0.00    +0.172 C 
ATOM     14  C   UNL     1      22.903 -21.640  -3.465  1.00  0.00    +0.087 C 
ATOM     15  C   UNL     1      21.534 -21.013  -3.244  1.00  0.00    +0.124 C 
ATOM     16  O   UNL     1      23.340 -21.866  -5.843  1.00  0.00    -0.347 OA
ATOM     17  C   UNL     1      24.718 -22.216  -5.965  1.00  0.00    +0.195 C 
ATOM     18  C   UNL     1      24.771 -23.635  -5.451  1.00  0.00    +0.144 C 
ATOM     19  C   UNL     1      24.415 -24.664  -6.516  1.00  0.00    +0.041 C 
ATOM     20  O   UNL     1      23.786 -23.667  -4.413  1.00  0.00    -0.344 OA
ATOM     21  S   UNL     1      18.480 -23.126  -1.573  1.00  0.00    -0.096 SA
ATOM     22  C   UNL     1      17.896 -22.507  -0.010  1.00  0.00    +0.067 A 
ENDROOT
BRANCH   1  23
ATOM     23  N   UNL     1      17.580 -24.775   0.785  1.00  0.00    -0.321 N 
ATOM     24  C   UNL     1      18.523 -25.655   1.269  1.00  0.00    +0.250 C 
ATOM     25  O   UNL     1      19.504 -25.383   1.948  1.00  0.00    -0.269 OA
ATOM     26  H   UNL     1      16.886 -25.152   0.150  1.00  0.00    +0.170 HD
BRANCH  24  27
ATOM     27  C   UNL     1      18.301 -27.067   0.817  1.00  0.00    +0.007 C 
ATOM     28  C   UNL     1      17.178 -27.731   1.140  1.00  0.00    +0.018 C 
ATOM     29  C   UNL     1      19.432 -27.681   0.052  1.00  0.00    +0.050 C 
ENDBRANCH  24  27
ENDBRANCH   1  23
BRANCH   3  30
ATOM     30  C   UNL     1      16.292 -20.915   3.687  1.00  0.00    +0.416 C 
ATOM     31  F   UNL     1      17.152 -21.001   4.739  1.00  0.00    -0.166 F 
ATOM     32  F   UNL     1      15.163 -21.568   4.078  1.00  0.00    -0.166 F 
ATOM     33  F   UNL     1      15.954 -19.601   3.584  1.00  0.00    -0.166 F 
ENDBRANCH   3  30
TORSDOF 3
ENDMDL
