MODEL 1
REMARK VINA RESULT:    -8.677      0.000      0.000
REMARK INTER + INTRA:         -13.586
REMARK INTER:                 -11.720
REMARK INTRA:                  -1.865
REMARK UNBOUND:                -1.865
REMARK SMILES COC(=O)c1ccc(C2(C)NC(=O)N(CC(=O)c3ccc(F)cc3F)C2=O)cc1
REMARK SMILES IDX 9 1 10 2 11 3 12 4 13 5 14 6 26 7 27 8 8 10 5 11 6 12 29 13
REMARK SMILES IDX 7 14 28 15 3 16 4 17 2 18 1 19 15 20 16 21 17 22 18 23 19 24
REMARK SMILES IDX 24 25 20 26 23 27 21 28 25 29 22 30
REMARK H PARENT 11 9
ROOT
ATOM      1  C   UNL     1      17.725 -22.363   3.428  1.00  0.00    +0.144 C 
ATOM      2  C   UNL     1      17.640 -23.264   4.664  1.00  0.00    +0.051 C 
ATOM      3  N   UNL     1      19.102 -21.956   3.221  1.00  0.00    -0.319 N 
ATOM      4  C   UNL     1      19.664 -22.541   2.113  1.00  0.00    +0.325 C 
ATOM      5  O   UNL     1      20.839 -22.433   1.808  1.00  0.00    -0.248 OA
ATOM      6  N   UNL     1      18.705 -23.242   1.457  1.00  0.00    -0.254 N 
ATOM      7  C   UNL     1      17.529 -23.220   2.152  1.00  0.00    +0.261 C 
ATOM      8  O   UNL     1      16.503 -23.807   1.829  1.00  0.00    -0.271 OA
ATOM      9  H   UNL     1      19.682 -21.494   3.906  1.00  0.00    +0.166 HD
ENDROOT
BRANCH   1  10
ATOM     10  C   UNL     1      16.758 -21.182   3.494  1.00  0.00    -0.013 A 
ATOM     11  C   UNL     1      14.970 -18.979   3.555  1.00  0.00    +0.060 A 
ATOM     12  C   UNL     1      15.842 -19.155   2.476  1.00  0.00    +0.016 A 
ATOM     13  C   UNL     1      14.995 -19.903   4.605  1.00  0.00    +0.016 A 
ATOM     14  C   UNL     1      16.723 -20.242   2.446  1.00  0.00    +0.007 A 
ATOM     15  C   UNL     1      15.878 -20.989   4.573  1.00  0.00    +0.007 A 
BRANCH  11  16
ATOM     16  C   UNL     1      14.053 -17.808   3.537  1.00  0.00    +0.337 C 
ATOM     17  O   UNL     1      13.938 -17.055   2.582  1.00  0.00    -0.246 OA
BRANCH  16  18
ATOM     18  O   UNL     1      13.382 -17.707   4.712  1.00  0.00    -0.465 OA
ATOM     19  C   UNL     1      12.155 -16.982   4.617  1.00  0.00    +0.282 C 
ENDBRANCH  16  18
ENDBRANCH  11  16
ENDBRANCH   1  10
BRANCH   6  20
ATOM     20  C   UNL     1      18.955 -24.060   0.291  1.00  0.00    +0.211 C 
BRANCH  20  21
ATOM     21  C   UNL     1      19.033 -23.156  -0.936  1.00  0.00    +0.185 C 
ATOM     22  O   UNL     1      19.813 -23.366  -1.869  1.00  0.00    -0.292 OA
BRANCH  21  23
ATOM     23  C   UNL     1      18.131 -21.972  -1.022  1.00  0.00    +0.055 A 
ATOM     24  C   UNL     1      18.703 -20.690  -0.957  1.00  0.00    +0.018 A 
ATOM     25  C   UNL     1      16.747 -22.084  -1.173  1.00  0.00    +0.136 A 
ATOM     26  C   UNL     1      17.896 -19.552  -1.034  1.00  0.00    +0.040 A 
ATOM     27  C   UNL     1      15.938 -20.953  -1.251  1.00  0.00    +0.079 A 
ATOM     28  C   UNL     1      16.521 -19.696  -1.179  1.00  0.00    +0.126 A 
ATOM     29  F   UNL     1      16.152 -23.282  -1.260  1.00  0.00    -0.206 F 
ATOM     30  F   UNL     1      15.748 -18.605  -1.253  1.00  0.00    -0.207 F 
ENDBRANCH  21  23
ENDBRANCH  20  21
ENDBRANCH   6  20
TORSDOF 6
ENDMDL
MODEL 2
REMARK VINA RESULT:    -8.089      2.845      6.961
REMARK INTER + INTRA:         -12.791
REMARK INTER:                 -11.696
REMARK INTRA:                  -1.095
REMARK UNBOUND:                -1.865
REMARK SMILES COC(=O)c1ccc(C2(C)NC(=O)N(CC(=O)c3ccc(F)cc3F)C2=O)cc1
REMARK SMILES IDX 9 1 10 2 11 3 12 4 13 5 14 6 26 7 27 8 8 10 5 11 6 12 29 13
REMARK SMILES IDX 7 14 28 15 3 16 4 17 2 18 1 19 15 20 16 21 17 22 18 23 19 24
REMARK SMILES IDX 24 25 20 26 23 27 21 28 25 29 22 30
REMARK H PARENT 11 9
ROOT
ATOM      1  C   UNL     1      18.496 -21.479  -1.231  1.00  0.00    +0.144 C 
ATOM      2  C   UNL     1      18.274 -22.392  -2.440  1.00  0.00    +0.051 C 
ATOM      3  N   UNL     1      18.752 -20.126  -1.687  1.00  0.00    -0.319 N 
ATOM      4  C   UNL     1      17.716 -19.270  -1.409  1.00  0.00    +0.325 C 
ATOM      5  O   UNL     1      17.663 -18.115  -1.797  1.00  0.00    -0.248 OA
ATOM      6  N   UNL     1      16.795 -19.929  -0.662  1.00  0.00    -0.254 N 
ATOM      7  C   UNL     1      17.144 -21.241  -0.511  1.00  0.00    +0.261 C 
ATOM      8  O   UNL     1      16.479 -22.090   0.072  1.00  0.00    -0.271 OA
ATOM      9  H   UNL     1      19.477 -19.859  -2.338  1.00  0.00    +0.166 HD
ENDROOT
BRANCH   1  10
ATOM     10  C   UNL     1      19.576 -22.004  -0.287  1.00  0.00    -0.013 A 
ATOM     11  C   UNL     1      21.549 -22.962   1.514  1.00  0.00    +0.060 A 
ATOM     12  C   UNL     1      20.551 -22.088   1.955  1.00  0.00    +0.016 A 
ATOM     13  C   UNL     1      21.563 -23.355   0.172  1.00  0.00    +0.016 A 
ATOM     14  C   UNL     1      19.578 -21.616   1.066  1.00  0.00    +0.007 A 
ATOM     15  C   UNL     1      20.589 -22.881  -0.715  1.00  0.00    +0.007 A 
BRANCH  11  16
ATOM     16  C   UNL     1      22.559 -23.435   2.500  1.00  0.00    +0.337 C 
ATOM     17  O   UNL     1      23.736 -23.615   2.226  1.00  0.00    -0.246 OA
BRANCH  16  18
ATOM     18  O   UNL     1      21.988 -23.631   3.715  1.00  0.00    -0.465 OA
ATOM     19  C   UNL     1      21.627 -24.989   3.972  1.00  0.00    +0.282 C 
ENDBRANCH  16  18
ENDBRANCH  11  16
ENDBRANCH   1  10
BRANCH   6  20
ATOM     20  C   UNL     1      15.527 -19.364  -0.256  1.00  0.00    +0.211 C 
BRANCH  20  21
ATOM     21  C   UNL     1      15.762 -18.427   0.926  1.00  0.00    +0.185 C 
ATOM     22  O   UNL     1      16.089 -17.246   0.784  1.00  0.00    -0.292 OA
BRANCH  21  23
ATOM     23  C   UNL     1      15.586 -18.950   2.311  1.00  0.00    +0.055 A 
ATOM     24  C   UNL     1      16.459 -19.953   2.762  1.00  0.00    +0.018 A 
ATOM     25  C   UNL     1      14.596 -18.479   3.178  1.00  0.00    +0.136 A 
ATOM     26  C   UNL     1      16.332 -20.472   4.054  1.00  0.00    +0.040 A 
ATOM     27  C   UNL     1      14.464 -18.993   4.466  1.00  0.00    +0.079 A 
ATOM     28  C   UNL     1      15.334 -19.987   4.892  1.00  0.00    +0.126 A 
ATOM     29  F   UNL     1      13.748 -17.510   2.805  1.00  0.00    -0.206 F 
ATOM     30  F   UNL     1      15.212 -20.484   6.129  1.00  0.00    -0.207 F 
ENDBRANCH  21  23
ENDBRANCH  20  21
ENDBRANCH   6  20
TORSDOF 6
ENDMDL
MODEL 3
REMARK VINA RESULT:    -7.629      3.044      7.243
REMARK INTER + INTRA:         -12.170
REMARK INTER:                 -11.523
REMARK INTRA:                  -0.646
REMARK UNBOUND:                -1.865
REMARK SMILES COC(=O)c1ccc(C2(C)NC(=O)N(CC(=O)c3ccc(F)cc3F)C2=O)cc1
REMARK SMILES IDX 9 1 10 2 11 3 12 4 13 5 14 6 26 7 27 8 8 10 5 11 6 12 29 13
REMARK SMILES IDX 7 14 28 15 3 16 4 17 2 18 1 19 15 20 16 21 17 22 18 23 19 24
REMARK SMILES IDX 24 25 20 26 23 27 21 28 25 29 22 30
REMARK H PARENT 11 9
ROOT
ATOM      1  C   UNL     1      18.401 -21.590  -1.205  1.00  0.00    +0.144 C 
ATOM      2  C   UNL     1      17.926 -22.484  -2.354  1.00  0.00    +0.051 C 
ATOM      3  N   UNL     1      18.644 -20.250  -1.704  1.00  0.00    -0.319 N 
ATOM      4  C   UNL     1      17.717 -19.343  -1.252  1.00  0.00    +0.325 C 
ATOM      5  O   UNL     1      17.657 -18.185  -1.630  1.00  0.00    -0.248 OA
ATOM      6  N   UNL     1      16.908 -19.958  -0.354  1.00  0.00    -0.254 N 
ATOM      7  C   UNL     1      17.209 -21.287  -0.262  1.00  0.00    +0.261 C 
ATOM      8  O   UNL     1      16.613 -22.104   0.431  1.00  0.00    -0.271 OA
ATOM      9  H   UNL     1      19.257 -20.016  -2.472  1.00  0.00    +0.166 HD
ENDROOT
BRANCH   1  10
ATOM     10  C   UNL     1      19.600 -22.175  -0.462  1.00  0.00    -0.013 A 
ATOM     11  C   UNL     1      21.804 -23.244   0.973  1.00  0.00    +0.060 A 
ATOM     12  C   UNL     1      20.926 -22.346   1.587  1.00  0.00    +0.016 A 
ATOM     13  C   UNL     1      21.582 -23.606  -0.361  1.00  0.00    +0.016 A 
ATOM     14  C   UNL     1      19.840 -21.820   0.879  1.00  0.00    +0.007 A 
ATOM     15  C   UNL     1      20.494 -23.076  -1.067  1.00  0.00    +0.007 A 
BRANCH  11  16
ATOM     16  C   UNL     1      22.942 -23.776   1.769  1.00  0.00    +0.337 C 
ATOM     17  O   UNL     1      22.969 -24.903   2.239  1.00  0.00    -0.246 OA
BRANCH  16  18
ATOM     18  O   UNL     1      23.919 -22.842   1.891  1.00  0.00    -0.465 OA
ATOM     19  C   UNL     1      24.177 -22.447   3.239  1.00  0.00    +0.282 C 
ENDBRANCH  16  18
ENDBRANCH  11  16
ENDBRANCH   1  10
BRANCH   6  20
ATOM     20  C   UNL     1      15.760 -19.331   0.264  1.00  0.00    +0.211 C 
BRANCH  20  21
ATOM     21  C   UNL     1      16.079 -19.061   1.732  1.00  0.00    +0.185 C 
ATOM     22  O   UNL     1      17.175 -19.321   2.233  1.00  0.00    -0.292 OA
BRANCH  21  23
ATOM     23  C   UNL     1      15.031 -18.454   2.601  1.00  0.00    +0.055 A 
ATOM     24  C   UNL     1      14.330 -17.336   2.120  1.00  0.00    +0.018 A 
ATOM     25  C   UNL     1      14.714 -18.954   3.867  1.00  0.00    +0.136 A 
ATOM     26  C   UNL     1      13.338 -16.735   2.901  1.00  0.00    +0.040 A 
ATOM     27  C   UNL     1      13.726 -18.359   4.649  1.00  0.00    +0.079 A 
ATOM     28  C   UNL     1      13.048 -17.252   4.158  1.00  0.00    +0.126 A 
ATOM     29  F   UNL     1      15.339 -20.029   4.366  1.00  0.00    -0.206 F 
ATOM     30  F   UNL     1      12.098 -16.676   4.905  1.00  0.00    -0.207 F 
ENDBRANCH  21  23
ENDBRANCH  20  21
ENDBRANCH   6  20
TORSDOF 6
ENDMDL
MODEL 4
REMARK VINA RESULT:    -7.561      2.044      2.623
REMARK INTER + INTRA:         -12.079
REMARK INTER:                 -10.196
REMARK INTRA:                  -1.883
REMARK UNBOUND:                -1.865
REMARK SMILES COC(=O)c1ccc(C2(C)NC(=O)N(CC(=O)c3ccc(F)cc3F)C2=O)cc1
REMARK SMILES IDX 9 1 10 2 11 3 12 4 13 5 14 6 26 7 27 8 8 10 5 11 6 12 29 13
REMARK SMILES IDX 7 14 28 15 3 16 4 17 2 18 1 19 15 20 16 21 17 22 18 23 19 24
REMARK SMILES IDX 24 25 20 26 23 27 21 28 25 29 22 30
REMARK H PARENT 11 9
ROOT
ATOM      1  C   UNL     1      18.807 -23.729   1.584  1.00  0.00    +0.144 C 
ATOM      2  C   UNL     1      19.005 -25.193   1.985  1.00  0.00    +0.051 C 
ATOM      3  N   UNL     1      20.096 -23.124   1.308  1.00  0.00    -0.319 N 
ATOM      4  C   UNL     1      20.279 -22.857  -0.025  1.00  0.00    +0.325 C 
ATOM      5  O   UNL     1      21.327 -22.454  -0.502  1.00  0.00    -0.248 OA
ATOM      6  N   UNL     1      19.126 -23.128  -0.687  1.00  0.00    -0.254 N 
ATOM      7  C   UNL     1      18.197 -23.663   0.160  1.00  0.00    +0.261 C 
ATOM      8  O   UNL     1      17.082 -24.053  -0.164  1.00  0.00    -0.271 OA
ATOM      9  H   UNL     1      20.878 -23.103   1.948  1.00  0.00    +0.166 HD
ENDROOT
BRANCH   1  10
ATOM     10  C   UNL     1      17.987 -22.945   2.607  1.00  0.00    -0.013 A 
ATOM     11  C   UNL     1      16.437 -21.457   4.461  1.00  0.00    +0.060 A 
ATOM     12  C   UNL     1      16.558 -21.031   3.135  1.00  0.00    +0.016 A 
ATOM     13  C   UNL     1      17.095 -22.625   4.862  1.00  0.00    +0.016 A 
ATOM     14  C   UNL     1      17.322 -21.765   2.221  1.00  0.00    +0.007 A 
ATOM     15  C   UNL     1      17.859 -23.357   3.945  1.00  0.00    +0.007 A 
BRANCH  11  16
ATOM     16  C   UNL     1      15.612 -20.641   5.393  1.00  0.00    +0.337 C 
ATOM     17  O   UNL     1      14.390 -20.634   5.383  1.00  0.00    -0.246 OA
BRANCH  16  18
ATOM     18  O   UNL     1      16.402 -19.925   6.232  1.00  0.00    -0.465 OA
ATOM     19  C   UNL     1      15.969 -18.578   6.425  1.00  0.00    +0.282 C 
ENDBRANCH  16  18
ENDBRANCH  11  16
ENDBRANCH   1  10
BRANCH   6  20
ATOM     20  C   UNL     1      18.978 -23.047  -2.123  1.00  0.00    +0.211 C 
BRANCH  20  21
ATOM     21  C   UNL     1      18.726 -21.592  -2.510  1.00  0.00    +0.185 C 
ATOM     22  O   UNL     1      19.294 -21.048  -3.460  1.00  0.00    -0.292 OA
BRANCH  21  23
ATOM     23  C   UNL     1      17.753 -20.789  -1.715  1.00  0.00    +0.055 A 
ATOM     24  C   UNL     1      18.241 -19.724  -0.941  1.00  0.00    +0.018 A 
ATOM     25  C   UNL     1      16.379 -21.048  -1.716  1.00  0.00    +0.136 A 
ATOM     26  C   UNL     1      17.364 -18.944  -0.181  1.00  0.00    +0.040 A 
ATOM     27  C   UNL     1      15.501 -20.274  -0.961  1.00  0.00    +0.079 A 
ATOM     28  C   UNL     1      16.003 -19.229  -0.198  1.00  0.00    +0.126 A 
ATOM     29  F   UNL     1      15.859 -22.040  -2.451  1.00  0.00    -0.206 F 
ATOM     30  F   UNL     1      15.164 -18.482   0.530  1.00  0.00    -0.207 F 
ENDBRANCH  21  23
ENDBRANCH  20  21
ENDBRANCH   6  20
TORSDOF 6
ENDMDL
MODEL 5
REMARK VINA RESULT:    -7.554      2.383      4.380
REMARK INTER + INTRA:         -12.069
REMARK INTER:                 -10.826
REMARK INTRA:                  -1.242
REMARK UNBOUND:                -1.865
REMARK SMILES COC(=O)c1ccc(C2(C)NC(=O)N(CC(=O)c3ccc(F)cc3F)C2=O)cc1
REMARK SMILES IDX 9 1 10 2 11 3 12 4 13 5 14 6 26 7 27 8 8 10 5 11 6 12 29 13
REMARK SMILES IDX 7 14 28 15 3 16 4 17 2 18 1 19 15 20 16 21 17 22 18 23 19 24
REMARK SMILES IDX 24 25 20 26 23 27 21 28 25 29 22 30
REMARK H PARENT 11 9
ROOT
ATOM      1  C   UNL     1      16.716 -19.760  -0.147  1.00  0.00    +0.144 C 
ATOM      2  C   UNL     1      17.371 -18.604  -0.908  1.00  0.00    +0.051 C 
ATOM      3  N   UNL     1      15.815 -20.473  -1.033  1.00  0.00    -0.319 N 
ATOM      4  C   UNL     1      16.278 -21.722  -1.364  1.00  0.00    +0.325 C 
ATOM      5  O   UNL     1      15.744 -22.453  -2.181  1.00  0.00    -0.248 OA
ATOM      6  N   UNL     1      17.403 -21.973  -0.649  1.00  0.00    -0.254 N 
ATOM      7  C   UNL     1      17.762 -20.879   0.088  1.00  0.00    +0.261 C 
ATOM      8  O   UNL     1      18.762 -20.794   0.792  1.00  0.00    -0.271 OA
ATOM      9  H   UNL     1      15.056 -20.054  -1.552  1.00  0.00    +0.166 HD
ENDROOT
BRANCH   1  10
ATOM     10  C   UNL     1      16.044 -19.307   1.147  1.00  0.00    -0.013 A 
ATOM     11  C   UNL     1      14.836 -18.499   3.585  1.00  0.00    +0.060 A 
ATOM     12  C   UNL     1      15.706 -19.593   3.553  1.00  0.00    +0.016 A 
ATOM     13  C   UNL     1      14.567 -17.810   2.397  1.00  0.00    +0.016 A 
ATOM     14  C   UNL     1      16.301 -19.991   2.351  1.00  0.00    +0.007 A 
ATOM     15  C   UNL     1      15.164 -18.211   1.195  1.00  0.00    +0.007 A 
BRANCH  11  16
ATOM     16  C   UNL     1      14.230 -18.116   4.889  1.00  0.00    +0.337 C 
ATOM     17  O   UNL     1      14.225 -18.844   5.870  1.00  0.00    -0.246 OA
BRANCH  16  18
ATOM     18  O   UNL     1      13.699 -16.869   4.823  1.00  0.00    -0.465 OA
ATOM     19  C   UNL     1      12.283 -16.833   5.008  1.00  0.00    +0.282 C 
ENDBRANCH  16  18
ENDBRANCH  11  16
ENDBRANCH   1  10
BRANCH   6  20
ATOM     20  C   UNL     1      18.214 -23.161  -0.804  1.00  0.00    +0.211 C 
BRANCH  20  21
ATOM     21  C   UNL     1      17.856 -24.148   0.304  1.00  0.00    +0.185 C 
ATOM     22  O   UNL     1      17.197 -25.170   0.097  1.00  0.00    -0.292 OA
BRANCH  21  23
ATOM     23  C   UNL     1      18.321 -23.877   1.694  1.00  0.00    +0.055 A 
ATOM     24  C   UNL     1      19.690 -24.009   1.978  1.00  0.00    +0.018 A 
ATOM     25  C   UNL     1      17.455 -23.491   2.721  1.00  0.00    +0.136 A 
ATOM     26  C   UNL     1      20.171 -23.764   3.267  1.00  0.00    +0.040 A 
ATOM     27  C   UNL     1      17.929 -23.245   4.007  1.00  0.00    +0.079 A 
ATOM     28  C   UNL     1      19.284 -23.387   4.269  1.00  0.00    +0.126 A 
ATOM     29  F   UNL     1      16.143 -23.332   2.500  1.00  0.00    -0.206 F 
ATOM     30  F   UNL     1      19.745 -23.152   5.504  1.00  0.00    -0.207 F 
ENDBRANCH  21  23
ENDBRANCH  20  21
ENDBRANCH   6  20
TORSDOF 6
ENDMDL
MODEL 6
REMARK VINA RESULT:    -7.418      2.444      2.943
REMARK INTER + INTRA:         -11.885
REMARK INTER:                 -10.812
REMARK INTRA:                  -1.073
REMARK UNBOUND:                -1.865
REMARK SMILES COC(=O)c1ccc(C2(C)NC(=O)N(CC(=O)c3ccc(F)cc3F)C2=O)cc1
REMARK SMILES IDX 9 1 10 2 11 3 12 4 13 5 14 6 26 7 27 8 8 10 5 11 6 12 29 13
REMARK SMILES IDX 7 14 28 15 3 16 4 17 2 18 1 19 15 20 16 21 17 22 18 23 19 24
REMARK SMILES IDX 24 25 20 26 23 27 21 28 25 29 22 30
REMARK H PARENT 11 9
ROOT
ATOM      1  C   UNL     1      17.504 -22.675   2.904  1.00  0.00    +0.144 C 
ATOM      2  C   UNL     1      16.445 -23.300   1.990  1.00  0.00    +0.051 C 
ATOM      3  N   UNL     1      18.195 -23.723   3.631  1.00  0.00    -0.319 N 
ATOM      4  C   UNL     1      19.492 -23.889   3.213  1.00  0.00    +0.325 C 
ATOM      5  O   UNL     1      20.225 -24.782   3.603  1.00  0.00    -0.248 OA
ATOM      6  N   UNL     1      19.787 -22.918   2.313  1.00  0.00    -0.254 N 
ATOM      7  C   UNL     1      18.685 -22.157   2.043  1.00  0.00    +0.261 C 
ATOM      8  O   UNL     1      18.636 -21.240   1.232  1.00  0.00    -0.271 OA
ATOM      9  H   UNL     1      17.749 -24.422   4.208  1.00  0.00    +0.166 HD
ENDROOT
BRANCH   1  10
ATOM     10  C   UNL     1      16.929 -21.595   3.817  1.00  0.00    -0.013 A 
ATOM     11  C   UNL     1      15.827 -19.567   5.469  1.00  0.00    +0.060 A 
ATOM     12  C   UNL     1      15.700 -19.496   4.078  1.00  0.00    +0.016 A 
ATOM     13  C   UNL     1      16.509 -20.650   6.034  1.00  0.00    +0.016 A 
ATOM     14  C   UNL     1      16.243 -20.497   3.265  1.00  0.00    +0.007 A 
ATOM     15  C   UNL     1      17.053 -21.649   5.217  1.00  0.00    +0.007 A 
BRANCH  11  16
ATOM     16  C   UNL     1      15.231 -18.478   6.289  1.00  0.00    +0.337 C 
ATOM     17  O   UNL     1      15.880 -17.763   7.036  1.00  0.00    -0.246 OA
BRANCH  16  18
ATOM     18  O   UNL     1      13.892 -18.402   6.084  1.00  0.00    -0.465 OA
ATOM     19  C   UNL     1      13.453 -17.138   5.584  1.00  0.00    +0.282 C 
ENDBRANCH  16  18
ENDBRANCH  11  16
ENDBRANCH   1  10
BRANCH   6  20
ATOM     20  C   UNL     1      21.040 -22.832   1.595  1.00  0.00    +0.211 C 
BRANCH  20  21
ATOM     21  C   UNL     1      20.965 -23.736   0.367  1.00  0.00    +0.185 C 
ATOM     22  O   UNL     1      21.142 -24.955   0.426  1.00  0.00    -0.292 OA
BRANCH  21  23
ATOM     23  C   UNL     1      20.659 -23.130  -0.961  1.00  0.00    +0.055 A 
ATOM     24  C   UNL     1      21.721 -22.598  -1.712  1.00  0.00    +0.018 A 
ATOM     25  C   UNL     1      19.367 -23.077  -1.490  1.00  0.00    +0.136 A 
ATOM     26  C   UNL     1      21.481 -22.021  -2.962  1.00  0.00    +0.040 A 
ATOM     27  C   UNL     1      19.123 -22.503  -2.735  1.00  0.00    +0.079 A 
ATOM     28  C   UNL     1      20.183 -21.978  -3.460  1.00  0.00    +0.126 A 
ATOM     29  F   UNL     1      18.322 -23.586  -0.824  1.00  0.00    -0.206 F 
ATOM     30  F   UNL     1      19.954 -21.425  -4.657  1.00  0.00    -0.207 F 
ENDBRANCH  21  23
ENDBRANCH  20  21
ENDBRANCH   6  20
TORSDOF 6
ENDMDL
MODEL 7
REMARK VINA RESULT:    -7.263      3.121      7.818
REMARK INTER + INTRA:         -11.676
REMARK INTER:                 -11.077
REMARK INTRA:                  -0.599
REMARK UNBOUND:                -1.865
REMARK SMILES COC(=O)c1ccc(C2(C)NC(=O)N(CC(=O)c3ccc(F)cc3F)C2=O)cc1
REMARK SMILES IDX 9 1 10 2 11 3 12 4 13 5 14 6 26 7 27 8 8 10 5 11 6 12 29 13
REMARK SMILES IDX 7 14 28 15 3 16 4 17 2 18 1 19 15 20 16 21 17 22 18 23 19 24
REMARK SMILES IDX 24 25 20 26 23 27 21 28 25 29 22 30
REMARK H PARENT 11 9
ROOT
ATOM      1  C   UNL     1      17.288 -22.285  -0.326  1.00  0.00    +0.144 C 
ATOM      2  C   UNL     1      16.501 -23.549   0.034  1.00  0.00    +0.051 C 
ATOM      3  N   UNL     1      16.382 -21.289  -0.867  1.00  0.00    -0.319 N 
ATOM      4  C   UNL     1      16.196 -20.228  -0.017  1.00  0.00    +0.325 C 
ATOM      5  O   UNL     1      15.394 -19.330  -0.213  1.00  0.00    -0.248 OA
ATOM      6  N   UNL     1      17.029 -20.368   1.045  1.00  0.00    -0.254 N 
ATOM      7  C   UNL     1      17.707 -21.552   0.975  1.00  0.00    +0.261 C 
ATOM      8  O   UNL     1      18.490 -21.973   1.818  1.00  0.00    -0.271 OA
ATOM      9  H   UNL     1      15.765 -21.431  -1.654  1.00  0.00    +0.166 HD
ENDROOT
BRANCH   1  10
ATOM     10  C   UNL     1      18.475 -22.572  -1.242  1.00  0.00    -0.013 A 
ATOM     11  C   UNL     1      20.669 -23.055  -2.978  1.00  0.00    +0.060 A 
ATOM     12  C   UNL     1      19.676 -22.135  -3.328  1.00  0.00    +0.016 A 
ATOM     13  C   UNL     1      20.563 -23.737  -1.760  1.00  0.00    +0.016 A 
ATOM     14  C   UNL     1      18.595 -21.897  -2.472  1.00  0.00    +0.007 A 
ATOM     15  C   UNL     1      19.480 -23.497  -0.906  1.00  0.00    +0.007 A 
BRANCH  11  16
ATOM     16  C   UNL     1      21.798 -23.270  -3.923  1.00  0.00    +0.337 C 
ATOM     17  O   UNL     1      22.522 -22.372  -4.324  1.00  0.00    -0.246 OA
BRANCH  16  18
ATOM     18  O   UNL     1      21.896 -24.580  -4.261  1.00  0.00    -0.465 OA
ATOM     19  C   UNL     1      23.240 -25.032  -4.438  1.00  0.00    +0.282 C 
ENDBRANCH  16  18
ENDBRANCH  11  16
ENDBRANCH   1  10
BRANCH   6  20
ATOM     20  C   UNL     1      17.044 -19.479   2.186  1.00  0.00    +0.211 C 
BRANCH  20  21
ATOM     21  C   UNL     1      16.001 -19.956   3.193  1.00  0.00    +0.185 C 
ATOM     22  O   UNL     1      15.990 -21.103   3.647  1.00  0.00    -0.292 OA
BRANCH  21  23
ATOM     23  C   UNL     1      14.953 -19.003   3.657  1.00  0.00    +0.055 A 
ATOM     24  C   UNL     1      14.508 -18.013   2.764  1.00  0.00    +0.018 A 
ATOM     25  C   UNL     1      14.391 -19.059   4.935  1.00  0.00    +0.136 A 
ATOM     26  C   UNL     1      13.527 -17.099   3.156  1.00  0.00    +0.040 A 
ATOM     27  C   UNL     1      13.412 -18.150   5.330  1.00  0.00    +0.079 A 
ATOM     28  C   UNL     1      12.990 -17.176   4.437  1.00  0.00    +0.126 A 
ATOM     29  F   UNL     1      14.765 -19.994   5.819  1.00  0.00    -0.206 F 
ATOM     30  F   UNL     1      12.049 -16.300   4.811  1.00  0.00    -0.207 F 
ENDBRANCH  21  23
ENDBRANCH  20  21
ENDBRANCH   6  20
TORSDOF 6
ENDMDL
MODEL 8
REMARK VINA RESULT:    -7.263      2.254      3.095
REMARK INTER + INTRA:         -11.676
REMARK INTER:                 -10.890
REMARK INTRA:                  -0.786
REMARK UNBOUND:                -1.865
REMARK SMILES COC(=O)c1ccc(C2(C)NC(=O)N(CC(=O)c3ccc(F)cc3F)C2=O)cc1
REMARK SMILES IDX 9 1 10 2 11 3 12 4 13 5 14 6 26 7 27 8 8 10 5 11 6 12 29 13
REMARK SMILES IDX 7 14 28 15 3 16 4 17 2 18 1 19 15 20 16 21 17 22 18 23 19 24
REMARK SMILES IDX 24 25 20 26 23 27 21 28 25 29 22 30
REMARK H PARENT 11 9
ROOT
ATOM      1  C   UNL     1      17.782 -22.478   3.516  1.00  0.00    +0.144 C 
ATOM      2  C   UNL     1      17.891 -23.593   4.560  1.00  0.00    +0.051 C 
ATOM      3  N   UNL     1      19.108 -21.983   3.197  1.00  0.00    -0.319 N 
ATOM      4  C   UNL     1      19.511 -22.331   1.932  1.00  0.00    +0.325 C 
ATOM      5  O   UNL     1      20.628 -22.120   1.490  1.00  0.00    -0.248 OA
ATOM      6  N   UNL     1      18.478 -22.939   1.297  1.00  0.00    -0.254 N 
ATOM      7  C   UNL     1      17.415 -23.094   2.142  1.00  0.00    +0.261 C 
ATOM      8  O   UNL     1      16.362 -23.655   1.862  1.00  0.00    -0.271 OA
ATOM      9  H   UNL     1      19.775 -21.631   3.869  1.00  0.00    +0.166 HD
ENDROOT
BRANCH   1  10
ATOM     10  C   UNL     1      16.818 -21.371   3.936  1.00  0.00    -0.013 A 
ATOM     11  C   UNL     1      15.029 -19.334   4.775  1.00  0.00    +0.060 A 
ATOM     12  C   UNL     1      15.320 -20.412   5.616  1.00  0.00    +0.016 A 
ATOM     13  C   UNL     1      15.630 -19.275   3.513  1.00  0.00    +0.016 A 
ATOM     14  C   UNL     1      16.202 -21.416   5.202  1.00  0.00    +0.007 A 
ATOM     15  C   UNL     1      16.512 -20.282   3.101  1.00  0.00    +0.007 A 
BRANCH  11  16
ATOM     16  C   UNL     1      14.086 -18.292   5.264  1.00  0.00    +0.337 C 
ATOM     17  O   UNL     1      13.863 -18.085   6.447  1.00  0.00    -0.246 OA
BRANCH  16  18
ATOM     18  O   UNL     1      13.526 -17.626   4.223  1.00  0.00    -0.465 OA
ATOM     19  C   UNL     1      12.318 -16.940   4.557  1.00  0.00    +0.282 C 
ENDBRANCH  16  18
ENDBRANCH  11  16
ENDBRANCH   1  10
BRANCH   6  20
ATOM     20  C   UNL     1      18.567 -23.519  -0.025  1.00  0.00    +0.211 C 
BRANCH  20  21
ATOM     21  C   UNL     1      18.545 -22.394  -1.057  1.00  0.00    +0.185 C 
ATOM     22  O   UNL     1      17.744 -21.457  -1.003  1.00  0.00    -0.292 OA
BRANCH  21  23
ATOM     23  C   UNL     1      19.530 -22.417  -2.176  1.00  0.00    +0.055 A 
ATOM     24  C   UNL     1      20.672 -23.224  -2.043  1.00  0.00    +0.018 A 
ATOM     25  C   UNL     1      19.359 -21.679  -3.351  1.00  0.00    +0.136 A 
ATOM     26  C   UNL     1      21.621 -23.277  -3.068  1.00  0.00    +0.040 A 
ATOM     27  C   UNL     1      20.302 -21.729  -4.375  1.00  0.00    +0.079 A 
ATOM     28  C   UNL     1      21.427 -22.528  -4.222  1.00  0.00    +0.126 A 
ATOM     29  F   UNL     1      18.279 -20.909  -3.537  1.00  0.00    -0.206 F 
ATOM     30  F   UNL     1      22.336 -22.579  -5.203  1.00  0.00    -0.207 F 
ENDBRANCH  21  23
ENDBRANCH  20  21
ENDBRANCH   6  20
TORSDOF 6
ENDMDL
