MODEL 1
REMARK VINA RESULT:    -8.403      0.000      0.000
REMARK INTER + INTRA:         -11.577
REMARK INTER:                 -10.368
REMARK INTRA:                  -1.209
REMARK UNBOUND:                -1.209
REMARK SMILES CC1(c2ccc(C#N)cc2)NC(=O)N(CC(=O)c2cccc(F)c2)C1=O
REMARK SMILES IDX 16 1 17 2 15 3 14 4 2 5 11 6 25 7 12 8 26 9 13 10 1 11 3 13
REMARK SMILES IDX 4 14 10 15 5 16 9 17 6 18 7 19 8 20 18 21 19 22 24 23 20 24
REMARK SMILES IDX 22 25 21 26 23 27
REMARK H PARENT 11 12
ROOT
ATOM      1  C   UNL     1      18.005 -22.517  -1.493  1.00  0.00    +0.182 C 
ATOM      2  O   UNL     1      17.764 -23.096  -2.553  1.00  0.00    -0.292 OA
ENDROOT
BRANCH   1   3
ATOM      3  C   UNL     1      18.915 -23.107  -0.419  1.00  0.00    +0.211 C 
BRANCH   3   4
ATOM      4  N   UNL     1      18.178 -23.244   0.816  1.00  0.00    -0.254 N 
ATOM      5  C   UNL     1      17.336 -22.867   2.997  1.00  0.00    +0.144 C 
ATOM      6  N   UNL     1      16.562 -23.821   2.226  1.00  0.00    -0.319 N 
ATOM      7  C   UNL     1      18.417 -22.512   1.948  1.00  0.00    +0.261 C 
ATOM      8  C   UNL     1      17.054 -23.995   0.955  1.00  0.00    +0.325 C 
ATOM      9  O   UNL     1      19.345 -21.728   2.106  1.00  0.00    -0.271 OA
ATOM     10  O   UNL     1      16.537 -24.708   0.112  1.00  0.00    -0.248 OA
ATOM     11  C   UNL     1      18.034 -23.603   4.147  1.00  0.00    +0.051 C 
ATOM     12  H   UNL     1      15.666 -24.202   2.496  1.00  0.00    +0.166 HD
BRANCH   5  13
ATOM     13  C   UNL     1      16.475 -21.667   3.385  1.00  0.00    -0.013 A 
ATOM     14  C   UNL     1      16.586 -20.421   2.744  1.00  0.00    +0.008 A 
ATOM     15  C   UNL     1      15.534 -21.779   4.429  1.00  0.00    +0.008 A 
ATOM     16  C   UNL     1      15.786 -19.336   3.124  1.00  0.00    +0.020 A 
ATOM     17  C   UNL     1      14.733 -20.698   4.810  1.00  0.00    +0.020 A 
ATOM     18  C   UNL     1      14.856 -19.472   4.157  1.00  0.00    +0.052 A 
ATOM     19  C   UNL     1      14.039 -18.360   4.544  1.00  0.00    +0.099 C 
ATOM     20  N   UNL     1      13.384 -17.454   4.854  1.00  0.00    -0.192 NA
ENDBRANCH   5  13
ENDBRANCH   3   4
ENDBRANCH   1   3
BRANCH   1  21
ATOM     21  C   UNL     1      17.379 -21.183  -1.239  1.00  0.00    +0.022 A 
ATOM     22  C   UNL     1      16.042 -21.042  -0.840  1.00  0.00    +0.012 A 
ATOM     23  C   UNL     1      18.168 -20.038  -1.413  1.00  0.00    +0.051 A 
ATOM     24  C   UNL     1      15.503 -19.769  -0.615  1.00  0.00    +0.004 A 
ATOM     25  C   UNL     1      17.620 -18.781  -1.186  1.00  0.00    +0.123 A 
ATOM     26  C   UNL     1      16.296 -18.637  -0.789  1.00  0.00    +0.039 A 
ATOM     27  F   UNL     1      18.379 -17.691  -1.352  1.00  0.00    -0.207 F 
ENDBRANCH   1  21
TORSDOF 4
ENDMDL
MODEL 2
REMARK VINA RESULT:    -8.274      3.172      6.336
REMARK INTER + INTRA:         -11.418
REMARK INTER:                 -10.634
REMARK INTRA:                  -0.784
REMARK UNBOUND:                -1.209
REMARK SMILES CC1(c2ccc(C#N)cc2)NC(=O)N(CC(=O)c2cccc(F)c2)C1=O
REMARK SMILES IDX 16 1 17 2 15 3 14 4 2 5 11 6 25 7 12 8 26 9 13 10 1 11 3 13
REMARK SMILES IDX 4 14 10 15 5 16 9 17 6 18 7 19 8 20 18 21 19 22 24 23 20 24
REMARK SMILES IDX 22 25 21 26 23 27
REMARK H PARENT 11 12
ROOT
ATOM      1  C   UNL     1      16.089 -19.793   2.962  1.00  0.00    +0.182 C 
ATOM      2  O   UNL     1      16.119 -20.963   3.347  1.00  0.00    -0.292 OA
ENDROOT
BRANCH   1   3
ATOM      3  C   UNL     1      17.127 -19.212   2.005  1.00  0.00    +0.211 C 
BRANCH   3   4
ATOM      4  N   UNL     1      17.360 -20.140   0.924  1.00  0.00    -0.254 N 
ATOM      5  C   UNL     1      18.188 -21.949  -0.361  1.00  0.00    +0.144 C 
ATOM      6  N   UNL     1      16.995 -21.336  -0.912  1.00  0.00    -0.319 N 
ATOM      7  C   UNL     1      18.360 -21.075   0.905  1.00  0.00    +0.261 C 
ATOM      8  C   UNL     1      16.519 -20.312  -0.130  1.00  0.00    +0.325 C 
ATOM      9  O   UNL     1      19.250 -21.182   1.739  1.00  0.00    -0.271 OA
ATOM     10  O   UNL     1      15.500 -19.685  -0.367  1.00  0.00    -0.248 OA
ATOM     11  C   UNL     1      19.374 -21.656  -1.287  1.00  0.00    +0.051 C 
ATOM     12  H   UNL     1      16.453 -21.700  -1.684  1.00  0.00    +0.166 HD
BRANCH   5  13
ATOM     13  C   UNL     1      17.933 -23.418  -0.032  1.00  0.00    -0.013 A 
ATOM     14  C   UNL     1      16.643 -23.976  -0.026  1.00  0.00    +0.008 A 
ATOM     15  C   UNL     1      19.009 -24.268   0.294  1.00  0.00    +0.008 A 
ATOM     16  C   UNL     1      16.438 -25.326   0.284  1.00  0.00    +0.020 A 
ATOM     17  C   UNL     1      18.808 -25.617   0.604  1.00  0.00    +0.020 A 
ATOM     18  C   UNL     1      17.520 -26.151   0.598  1.00  0.00    +0.052 A 
ATOM     19  C   UNL     1      17.307 -27.532   0.915  1.00  0.00    +0.099 C 
ATOM     20  N   UNL     1      17.126 -28.649   1.175  1.00  0.00    -0.192 NA
ENDBRANCH   5  13
ENDBRANCH   3   4
ENDBRANCH   1   3
BRANCH   1  21
ATOM     21  C   UNL     1      14.996 -18.899   3.452  1.00  0.00    +0.022 A 
ATOM     22  C   UNL     1      14.466 -17.860   2.673  1.00  0.00    +0.012 A 
ATOM     23  C   UNL     1      14.493 -19.114   4.743  1.00  0.00    +0.051 A 
ATOM     24  C   UNL     1      13.442 -17.049   3.179  1.00  0.00    +0.004 A 
ATOM     25  C   UNL     1      13.477 -18.302   5.232  1.00  0.00    +0.123 A 
ATOM     26  C   UNL     1      12.948 -17.273   4.463  1.00  0.00    +0.039 A 
ATOM     27  F   UNL     1      13.000 -18.513   6.465  1.00  0.00    -0.207 F 
ENDBRANCH   1  21
TORSDOF 4
ENDMDL
MODEL 3
REMARK VINA RESULT:    -7.976      3.175      7.033
REMARK INTER + INTRA:         -11.050
REMARK INTER:                 -10.321
REMARK INTRA:                  -0.729
REMARK UNBOUND:                -1.209
REMARK SMILES CC1(c2ccc(C#N)cc2)NC(=O)N(CC(=O)c2cccc(F)c2)C1=O
REMARK SMILES IDX 16 1 17 2 15 3 14 4 2 5 11 6 25 7 12 8 26 9 13 10 1 11 3 13
REMARK SMILES IDX 4 14 10 15 5 16 9 17 6 18 7 19 8 20 18 21 19 22 24 23 20 24
REMARK SMILES IDX 22 25 21 26 23 27
REMARK H PARENT 11 12
ROOT
ATOM      1  C   UNL     1      15.392 -18.688   2.416  1.00  0.00    +0.182 C 
ATOM      2  O   UNL     1      14.904 -18.155   1.419  1.00  0.00    -0.292 OA
ENDROOT
BRANCH   1   3
ATOM      3  C   UNL     1      16.767 -19.351   2.409  1.00  0.00    +0.211 C 
BRANCH   3   4
ATOM      4  N   UNL     1      16.797 -20.391   1.407  1.00  0.00    -0.254 N 
ATOM      5  C   UNL     1      17.153 -21.567  -0.617  1.00  0.00    +0.144 C 
ATOM      6  N   UNL     1      16.849 -22.423   0.513  1.00  0.00    -0.319 N 
ATOM      7  C   UNL     1      17.110 -20.191   0.090  1.00  0.00    +0.261 C 
ATOM      8  C   UNL     1      16.680 -21.717   1.679  1.00  0.00    +0.325 C 
ATOM      9  O   UNL     1      17.300 -19.102  -0.440  1.00  0.00    -0.271 OA
ATOM     10  O   UNL     1      16.468 -22.229   2.765  1.00  0.00    -0.248 OA
ATOM     11  C   UNL     1      15.984 -21.612  -1.608  1.00  0.00    +0.051 C 
ATOM     12  H   UNL     1      16.915 -23.432   0.517  1.00  0.00    +0.166 HD
BRANCH   5  13
ATOM     13  C   UNL     1      18.533 -21.895  -1.183  1.00  0.00    -0.013 A 
ATOM     14  C   UNL     1      19.562 -22.438  -0.394  1.00  0.00    +0.008 A 
ATOM     15  C   UNL     1      18.820 -21.644  -2.540  1.00  0.00    +0.008 A 
ATOM     16  C   UNL     1      20.820 -22.725  -0.938  1.00  0.00    +0.020 A 
ATOM     17  C   UNL     1      20.075 -21.930  -3.087  1.00  0.00    +0.020 A 
ATOM     18  C   UNL     1      21.079 -22.473  -2.287  1.00  0.00    +0.052 A 
ATOM     19  C   UNL     1      22.367 -22.768  -2.842  1.00  0.00    +0.099 C 
ATOM     20  N   UNL     1      23.414 -23.006  -3.283  1.00  0.00    -0.192 NA
ENDBRANCH   5  13
ENDBRANCH   3   4
ENDBRANCH   1   3
BRANCH   1  21
ATOM     21  C   UNL     1      14.607 -18.696   3.689  1.00  0.00    +0.022 A 
ATOM     22  C   UNL     1      14.616 -19.784   4.574  1.00  0.00    +0.012 A 
ATOM     23  C   UNL     1      13.834 -17.568   3.996  1.00  0.00    +0.051 A 
ATOM     24  C   UNL     1      13.863 -19.741   5.753  1.00  0.00    +0.004 A 
ATOM     25  C   UNL     1      13.092 -17.539   5.171  1.00  0.00    +0.123 A 
ATOM     26  C   UNL     1      13.099 -18.615   6.051  1.00  0.00    +0.039 A 
ATOM     27  F   UNL     1      12.356 -16.459   5.460  1.00  0.00    -0.207 F 
ENDBRANCH   1  21
TORSDOF 4
ENDMDL
MODEL 4
REMARK VINA RESULT:    -7.781      2.153      3.214
REMARK INTER + INTRA:         -10.809
REMARK INTER:                 -10.257
REMARK INTRA:                  -0.552
REMARK UNBOUND:                -1.209
REMARK SMILES CC1(c2ccc(C#N)cc2)NC(=O)N(CC(=O)c2cccc(F)c2)C1=O
REMARK SMILES IDX 16 1 17 2 15 3 14 4 2 5 11 6 25 7 12 8 26 9 13 10 1 11 3 13
REMARK SMILES IDX 4 14 10 15 5 16 9 17 6 18 7 19 8 20 18 21 19 22 24 23 20 24
REMARK SMILES IDX 22 25 21 26 23 27
REMARK H PARENT 11 12
ROOT
ATOM      1  C   UNL     1      19.351 -23.064  -0.978  1.00  0.00    +0.182 C 
ATOM      2  O   UNL     1      19.802 -23.930  -0.227  1.00  0.00    -0.292 OA
ENDROOT
BRANCH   1   3
ATOM      3  C   UNL     1      18.268 -22.079  -0.546  1.00  0.00    +0.211 C 
BRANCH   3   4
ATOM      4  N   UNL     1      17.669 -22.531   0.689  1.00  0.00    -0.254 N 
ATOM      5  C   UNL     1      17.048 -22.703   2.968  1.00  0.00    +0.144 C 
ATOM      6  N   UNL     1      16.230 -23.501   2.075  1.00  0.00    -0.319 N 
ATOM      7  C   UNL     1      18.001 -22.060   1.930  1.00  0.00    +0.261 C 
ATOM      8  C   UNL     1      16.592 -23.356   0.758  1.00  0.00    +0.325 C 
ATOM      9  O   UNL     1      18.914 -21.281   2.176  1.00  0.00    -0.271 OA
ATOM     10  O   UNL     1      16.013 -23.890  -0.174  1.00  0.00    -0.248 OA
ATOM     11  C   UNL     1      17.888 -23.637   3.847  1.00  0.00    +0.051 C 
ATOM     12  H   UNL     1      15.381 -23.982   2.335  1.00  0.00    +0.166 HD
BRANCH   5  13
ATOM     13  C   UNL     1      16.194 -21.671   3.700  1.00  0.00    -0.013 A 
ATOM     14  C   UNL     1      15.474 -21.979   4.867  1.00  0.00    +0.008 A 
ATOM     15  C   UNL     1      16.092 -20.355   3.203  1.00  0.00    +0.008 A 
ATOM     16  C   UNL     1      14.694 -21.013   5.515  1.00  0.00    +0.020 A 
ATOM     17  C   UNL     1      15.315 -19.388   3.848  1.00  0.00    +0.020 A 
ATOM     18  C   UNL     1      14.614 -19.715   5.008  1.00  0.00    +0.052 A 
ATOM     19  C   UNL     1      13.815 -18.728   5.674  1.00  0.00    +0.099 C 
ATOM     20  N   UNL     1      13.162 -17.936   6.216  1.00  0.00    -0.192 NA
ENDBRANCH   5  13
ENDBRANCH   3   4
ENDBRANCH   1   3
BRANCH   1  21
ATOM     21  C   UNL     1      19.878 -22.972  -2.374  1.00  0.00    +0.022 A 
ATOM     22  C   UNL     1      20.775 -23.911  -2.905  1.00  0.00    +0.012 A 
ATOM     23  C   UNL     1      19.456 -21.900  -3.172  1.00  0.00    +0.051 A 
ATOM     24  C   UNL     1      21.240 -23.779  -4.219  1.00  0.00    +0.004 A 
ATOM     25  C   UNL     1      19.925 -21.782  -4.475  1.00  0.00    +0.123 A 
ATOM     26  C   UNL     1      20.812 -22.711  -5.004  1.00  0.00    +0.039 A 
ATOM     27  F   UNL     1      19.516 -20.756  -5.232  1.00  0.00    -0.207 F 
ENDBRANCH   1  21
TORSDOF 4
ENDMDL
MODEL 5
REMARK VINA RESULT:    -7.754      3.585      4.652
REMARK INTER + INTRA:         -10.776
REMARK INTER:                  -9.866
REMARK INTRA:                  -0.910
REMARK UNBOUND:                -1.209
REMARK SMILES CC1(c2ccc(C#N)cc2)NC(=O)N(CC(=O)c2cccc(F)c2)C1=O
REMARK SMILES IDX 16 1 17 2 15 3 14 4 2 5 11 6 25 7 12 8 26 9 13 10 1 11 3 13
REMARK SMILES IDX 4 14 10 15 5 16 9 17 6 18 7 19 8 20 18 21 19 22 24 23 20 24
REMARK SMILES IDX 22 25 21 26 23 27
REMARK H PARENT 11 12
ROOT
ATOM      1  C   UNL     1      20.734 -22.979  -3.033  1.00  0.00    +0.182 C 
ATOM      2  O   UNL     1      20.843 -24.182  -2.790  1.00  0.00    -0.292 OA
ENDROOT
BRANCH   1   3
ATOM      3  C   UNL     1      20.520 -21.933  -1.942  1.00  0.00    +0.211 C 
BRANCH   3   4
ATOM      4  N   UNL     1      19.138 -21.949  -1.523  1.00  0.00    -0.254 N 
ATOM      5  C   UNL     1      17.167 -22.270  -0.248  1.00  0.00    +0.144 C 
ATOM      6  N   UNL     1      16.997 -21.376  -1.377  1.00  0.00    -0.319 N 
ATOM      7  C   UNL     1      18.669 -22.605  -0.417  1.00  0.00    +0.261 C 
ATOM      8  C   UNL     1      18.162 -21.182  -2.078  1.00  0.00    +0.325 C 
ATOM      9  O   UNL     1      19.326 -23.349   0.301  1.00  0.00    -0.271 OA
ATOM     10  O   UNL     1      18.271 -20.432  -3.033  1.00  0.00    -0.248 OA
ATOM     11  C   UNL     1      16.377 -23.558  -0.507  1.00  0.00    +0.051 C 
ATOM     12  H   UNL     1      16.179 -20.810  -1.557  1.00  0.00    +0.166 HD
BRANCH   5  13
ATOM     13  C   UNL     1      16.869 -21.544   1.061  1.00  0.00    -0.013 A 
ATOM     14  C   UNL     1      16.787 -20.143   1.145  1.00  0.00    +0.008 A 
ATOM     15  C   UNL     1      16.677 -22.278   2.250  1.00  0.00    +0.008 A 
ATOM     16  C   UNL     1      16.517 -19.504   2.361  1.00  0.00    +0.020 A 
ATOM     17  C   UNL     1      16.406 -21.642   3.465  1.00  0.00    +0.020 A 
ATOM     18  C   UNL     1      16.325 -20.252   3.524  1.00  0.00    +0.052 A 
ATOM     19  C   UNL     1      16.048 -19.595   4.768  1.00  0.00    +0.099 C 
ATOM     20  N   UNL     1      15.829 -19.055   5.772  1.00  0.00    -0.192 NA
ENDBRANCH   5  13
ENDBRANCH   3   4
ENDBRANCH   1   3
BRANCH   1  21
ATOM     21  C   UNL     1      20.810 -22.519  -4.453  1.00  0.00    +0.022 A 
ATOM     22  C   UNL     1      21.455 -21.331  -4.827  1.00  0.00    +0.012 A 
ATOM     23  C   UNL     1      20.206 -23.311  -5.438  1.00  0.00    +0.051 A 
ATOM     24  C   UNL     1      21.497 -20.943  -6.172  1.00  0.00    +0.004 A 
ATOM     25  C   UNL     1      20.256 -22.914  -6.770  1.00  0.00    +0.123 A 
ATOM     26  C   UNL     1      20.895 -21.739  -7.144  1.00  0.00    +0.039 A 
ATOM     27  F   UNL     1      19.678 -23.676  -7.707  1.00  0.00    -0.207 F 
ENDBRANCH   1  21
TORSDOF 4
ENDMDL
MODEL 6
REMARK VINA RESULT:    -7.647      3.086      6.747
REMARK INTER + INTRA:         -10.643
REMARK INTER:                 -10.113
REMARK INTRA:                  -0.530
REMARK UNBOUND:                -1.209
REMARK SMILES CC1(c2ccc(C#N)cc2)NC(=O)N(CC(=O)c2cccc(F)c2)C1=O
REMARK SMILES IDX 16 1 17 2 15 3 14 4 2 5 11 6 25 7 12 8 26 9 13 10 1 11 3 13
REMARK SMILES IDX 4 14 10 15 5 16 9 17 6 18 7 19 8 20 18 21 19 22 24 23 20 24
REMARK SMILES IDX 22 25 21 26 23 27
REMARK H PARENT 11 12
ROOT
ATOM      1  C   UNL     1      15.486 -20.884   4.298  1.00  0.00    +0.182 C 
ATOM      2  O   UNL     1      15.009 -21.954   4.681  1.00  0.00    -0.292 OA
ENDROOT
BRANCH   1   3
ATOM      3  C   UNL     1      16.887 -20.771   3.701  1.00  0.00    +0.211 C 
BRANCH   3   4
ATOM      4  N   UNL     1      17.072 -21.801   2.706  1.00  0.00    -0.254 N 
ATOM      5  C   UNL     1      17.296 -22.925   0.633  1.00  0.00    +0.144 C 
ATOM      6  N   UNL     1      17.741 -23.703   1.773  1.00  0.00    -0.319 N 
ATOM      7  C   UNL     1      16.866 -21.630   1.363  1.00  0.00    +0.261 C 
ATOM      8  C   UNL     1      17.630 -23.015   2.957  1.00  0.00    +0.325 C 
ATOM      9  O   UNL     1      16.398 -20.627   0.837  1.00  0.00    -0.271 OA
ATOM     10  O   UNL     1      17.991 -23.448   4.038  1.00  0.00    -0.248 OA
ATOM     11  C   UNL     1      16.031 -23.568   0.052  1.00  0.00    +0.051 C 
ATOM     12  H   UNL     1      18.237 -24.582   1.724  1.00  0.00    +0.166 HD
BRANCH   5  13
ATOM     13  C   UNL     1      18.448 -22.697  -0.342  1.00  0.00    -0.013 A 
ATOM     14  C   UNL     1      19.568 -23.543  -0.398  1.00  0.00    +0.008 A 
ATOM     15  C   UNL     1      18.421 -21.596  -1.223  1.00  0.00    +0.008 A 
ATOM     16  C   UNL     1      20.613 -23.306  -1.300  1.00  0.00    +0.020 A 
ATOM     17  C   UNL     1      19.463 -21.357  -2.126  1.00  0.00    +0.020 A 
ATOM     18  C   UNL     1      20.562 -22.213  -2.168  1.00  0.00    +0.052 A 
ATOM     19  C   UNL     1      21.633 -21.973  -3.090  1.00  0.00    +0.099 C 
ATOM     20  N   UNL     1      22.506 -21.783  -3.831  1.00  0.00    -0.192 NA
ENDBRANCH   5  13
ENDBRANCH   3   4
ENDBRANCH   1   3
BRANCH   1  21
ATOM     21  C   UNL     1      14.665 -19.641   4.423  1.00  0.00    +0.022 A 
ATOM     22  C   UNL     1      14.656 -18.642   3.439  1.00  0.00    +0.012 A 
ATOM     23  C   UNL     1      13.883 -19.477   5.574  1.00  0.00    +0.051 A 
ATOM     24  C   UNL     1      13.870 -17.495   3.604  1.00  0.00    +0.004 A 
ATOM     25  C   UNL     1      13.107 -18.334   5.725  1.00  0.00    +0.123 A 
ATOM     26  C   UNL     1      13.094 -17.343   4.752  1.00  0.00    +0.039 A 
ATOM     27  F   UNL     1      12.361 -18.184   6.826  1.00  0.00    -0.207 F 
ENDBRANCH   1  21
TORSDOF 4
ENDMDL
MODEL 7
REMARK VINA RESULT:    -7.577      3.095      6.587
REMARK INTER + INTRA:         -10.558
REMARK INTER:                  -9.666
REMARK INTRA:                  -0.892
REMARK UNBOUND:                -1.209
REMARK SMILES CC1(c2ccc(C#N)cc2)NC(=O)N(CC(=O)c2cccc(F)c2)C1=O
REMARK SMILES IDX 16 1 17 2 15 3 14 4 2 5 11 6 25 7 12 8 26 9 13 10 1 11 3 13
REMARK SMILES IDX 4 14 10 15 5 16 9 17 6 18 7 19 8 20 18 21 19 22 24 23 20 24
REMARK SMILES IDX 22 25 21 26 23 27
REMARK H PARENT 11 12
ROOT
ATOM      1  C   UNL     1      17.030 -22.165   4.988  1.00  0.00    +0.182 C 
ATOM      2  O   UNL     1      16.880 -23.230   5.587  1.00  0.00    -0.292 OA
ENDROOT
BRANCH   1   3
ATOM      3  C   UNL     1      18.162 -21.931   3.990  1.00  0.00    +0.211 C 
BRANCH   3   4
ATOM      4  N   UNL     1      17.917 -22.703   2.794  1.00  0.00    -0.254 N 
ATOM      5  C   UNL     1      17.322 -23.321   0.586  1.00  0.00    +0.144 C 
ATOM      6  N   UNL     1      18.091 -24.329   1.290  1.00  0.00    -0.319 N 
ATOM      7  C   UNL     1      17.261 -22.235   1.688  1.00  0.00    +0.261 C 
ATOM      8  C   UNL     1      18.450 -23.931   2.555  1.00  0.00    +0.325 C 
ATOM      9  O   UNL     1      16.702 -21.148   1.598  1.00  0.00    -0.271 OA
ATOM     10  O   UNL     1      19.142 -24.592   3.311  1.00  0.00    -0.248 OA
ATOM     11  C   UNL     1      15.895 -23.840   0.372  1.00  0.00    +0.051 C 
ATOM     12  H   UNL     1      18.482 -25.163   0.874  1.00  0.00    +0.166 HD
BRANCH   5  13
ATOM     13  C   UNL     1      18.067 -22.853  -0.662  1.00  0.00    -0.013 A 
ATOM     14  C   UNL     1      17.442 -22.111  -1.679  1.00  0.00    +0.008 A 
ATOM     15  C   UNL     1      19.429 -23.172  -0.834  1.00  0.00    +0.008 A 
ATOM     16  C   UNL     1      18.149 -21.699  -2.815  1.00  0.00    +0.020 A 
ATOM     17  C   UNL     1      20.138 -22.761  -1.967  1.00  0.00    +0.020 A 
ATOM     18  C   UNL     1      19.500 -22.022  -2.962  1.00  0.00    +0.052 A 
ATOM     19  C   UNL     1      20.221 -21.598  -4.126  1.00  0.00    +0.099 C 
ATOM     20  N   UNL     1      20.797 -21.256  -5.073  1.00  0.00    -0.192 NA
ENDBRANCH   5  13
ENDBRANCH   3   4
ENDBRANCH   1   3
BRANCH   1  21
ATOM     21  C   UNL     1      16.071 -21.048   5.247  1.00  0.00    +0.022 A 
ATOM     22  C   UNL     1      14.742 -21.077   4.800  1.00  0.00    +0.012 A 
ATOM     23  C   UNL     1      16.530 -19.933   5.962  1.00  0.00    +0.051 A 
ATOM     24  C   UNL     1      13.883 -20.004   5.069  1.00  0.00    +0.004 A 
ATOM     25  C   UNL     1      15.666 -18.876   6.222  1.00  0.00    +0.123 A 
ATOM     26  C   UNL     1      14.349 -18.901   5.782  1.00  0.00    +0.039 A 
ATOM     27  F   UNL     1      16.111 -17.814   6.906  1.00  0.00    -0.207 F 
ENDBRANCH   1  21
TORSDOF 4
ENDMDL
MODEL 8
REMARK VINA RESULT:    -7.479      3.020      6.283
REMARK INTER + INTRA:         -10.437
REMARK INTER:                  -9.525
REMARK INTRA:                  -0.912
REMARK UNBOUND:                -1.209
REMARK SMILES CC1(c2ccc(C#N)cc2)NC(=O)N(CC(=O)c2cccc(F)c2)C1=O
REMARK SMILES IDX 16 1 17 2 15 3 14 4 2 5 11 6 25 7 12 8 26 9 13 10 1 11 3 13
REMARK SMILES IDX 4 14 10 15 5 16 9 17 6 18 7 19 8 20 18 21 19 22 24 23 20 24
REMARK SMILES IDX 22 25 21 26 23 27
REMARK H PARENT 11 12
ROOT
ATOM      1  C   UNL     1      15.916 -19.285   2.322  1.00  0.00    +0.182 C 
ATOM      2  O   UNL     1      14.787 -18.905   2.010  1.00  0.00    -0.292 OA
ENDROOT
BRANCH   1   3
ATOM      3  C   UNL     1      17.164 -18.908   1.526  1.00  0.00    +0.211 C 
BRANCH   3   4
ATOM      4  N   UNL     1      17.416 -19.913   0.519  1.00  0.00    -0.254 N 
ATOM      5  C   UNL     1      18.239 -21.828  -0.604  1.00  0.00    +0.144 C 
ATOM      6  N   UNL     1      17.100 -21.212  -1.255  1.00  0.00    -0.319 N 
ATOM      7  C   UNL     1      18.380 -20.880   0.612  1.00  0.00    +0.261 C 
ATOM      8  C   UNL     1      16.623 -20.123  -0.564  1.00  0.00    +0.325 C 
ATOM      9  O   UNL     1      19.223 -20.964   1.497  1.00  0.00    -0.271 OA
ATOM     10  O   UNL     1      15.642 -19.479  -0.894  1.00  0.00    -0.248 OA
ATOM     11  C   UNL     1      19.481 -21.637  -1.483  1.00  0.00    +0.051 C 
ATOM     12  H   UNL     1      16.584 -21.606  -2.029  1.00  0.00    +0.166 HD
BRANCH   5  13
ATOM     13  C   UNL     1      17.912 -23.263  -0.197  1.00  0.00    -0.013 A 
ATOM     14  C   UNL     1      16.595 -23.748  -0.136  1.00  0.00    +0.008 A 
ATOM     15  C   UNL     1      18.949 -24.154   0.149  1.00  0.00    +0.008 A 
ATOM     16  C   UNL     1      16.324 -25.068   0.245  1.00  0.00    +0.020 A 
ATOM     17  C   UNL     1      18.682 -25.473   0.529  1.00  0.00    +0.020 A 
ATOM     18  C   UNL     1      17.368 -25.935   0.577  1.00  0.00    +0.052 A 
ATOM     19  C   UNL     1      17.087 -27.286   0.967  1.00  0.00    +0.099 C 
ATOM     20  N   UNL     1      16.852 -28.377   1.286  1.00  0.00    -0.192 NA
ENDBRANCH   5  13
ENDBRANCH   3   4
ENDBRANCH   1   3
BRANCH   1  21
ATOM     21  C   UNL     1      16.079 -20.157   3.525  1.00  0.00    +0.022 A 
ATOM     22  C   UNL     1      16.310 -21.537   3.430  1.00  0.00    +0.012 A 
ATOM     23  C   UNL     1      15.990 -19.562   4.790  1.00  0.00    +0.051 A 
ATOM     24  C   UNL     1      16.455 -22.310   4.589  1.00  0.00    +0.004 A 
ATOM     25  C   UNL     1      16.136 -20.341   5.932  1.00  0.00    +0.123 A 
ATOM     26  C   UNL     1      16.367 -21.708   5.842  1.00  0.00    +0.039 A 
ATOM     27  F   UNL     1      16.052 -19.766   7.138  1.00  0.00    -0.207 F 
ENDBRANCH   1  21
TORSDOF 4
ENDMDL
MODEL 9
REMARK VINA RESULT:    -7.368      3.809      5.748
REMARK INTER + INTRA:         -10.300
REMARK INTER:                  -9.579
REMARK INTRA:                  -0.721
REMARK UNBOUND:                -1.209
REMARK SMILES CC1(c2ccc(C#N)cc2)NC(=O)N(CC(=O)c2cccc(F)c2)C1=O
REMARK SMILES IDX 16 1 17 2 15 3 14 4 2 5 11 6 25 7 12 8 26 9 13 10 1 11 3 13
REMARK SMILES IDX 4 14 10 15 5 16 9 17 6 18 7 19 8 20 18 21 19 22 24 23 20 24
REMARK SMILES IDX 22 25 21 26 23 27
REMARK H PARENT 11 12
ROOT
ATOM      1  C   UNL     1      18.498 -25.986   1.321  1.00  0.00    +0.182 C 
ATOM      2  O   UNL     1      19.271 -25.245   0.712  1.00  0.00    -0.292 OA
ENDROOT
BRANCH   1   3
ATOM      3  C   UNL     1      17.739 -25.542   2.569  1.00  0.00    +0.211 C 
BRANCH   3   4
ATOM      4  N   UNL     1      17.926 -24.124   2.768  1.00  0.00    -0.254 N 
ATOM      5  C   UNL     1      17.593 -21.779   2.762  1.00  0.00    +0.144 C 
ATOM      6  N   UNL     1      18.640 -22.220   3.663  1.00  0.00    -0.319 N 
ATOM      7  C   UNL     1      17.149 -23.151   2.199  1.00  0.00    +0.261 C 
ATOM      8  C   UNL     1      18.788 -23.586   3.671  1.00  0.00    +0.325 C 
ATOM      9  O   UNL     1      16.268 -23.337   1.368  1.00  0.00    -0.271 OA
ATOM     10  O   UNL     1      19.570 -24.187   4.388  1.00  0.00    -0.248 OA
ATOM     11  C   UNL     1      18.227 -20.992   1.608  1.00  0.00    +0.051 C 
ATOM     12  H   UNL     1      19.107 -21.640   4.346  1.00  0.00    +0.166 HD
BRANCH   5  13
ATOM     13  C   UNL     1      16.483 -21.072   3.535  1.00  0.00    -0.013 A 
ATOM     14  C   UNL     1      15.784 -21.690   4.586  1.00  0.00    +0.008 A 
ATOM     15  C   UNL     1      16.113 -19.753   3.196  1.00  0.00    +0.008 A 
ATOM     16  C   UNL     1      14.766 -21.018   5.274  1.00  0.00    +0.020 A 
ATOM     17  C   UNL     1      15.098 -19.080   3.882  1.00  0.00    +0.020 A 
ATOM     18  C   UNL     1      14.422 -19.711   4.925  1.00  0.00    +0.052 A 
ATOM     19  C   UNL     1      13.379 -19.026   5.632  1.00  0.00    +0.099 C 
ATOM     20  N   UNL     1      12.531 -18.479   6.206  1.00  0.00    -0.192 NA
ENDBRANCH   5  13
ENDBRANCH   3   4
ENDBRANCH   1   3
BRANCH   1  21
ATOM     21  C   UNL     1      18.294 -27.382   0.826  1.00  0.00    +0.022 A 
ATOM     22  C   UNL     1      19.181 -28.002  -0.067  1.00  0.00    +0.012 A 
ATOM     23  C   UNL     1      17.168 -28.086   1.274  1.00  0.00    +0.051 A 
ATOM     24  C   UNL     1      18.944 -29.312  -0.502  1.00  0.00    +0.004 A 
ATOM     25  C   UNL     1      16.946 -29.386   0.834  1.00  0.00    +0.123 A 
ATOM     26  C   UNL     1      17.823 -30.004  -0.048  1.00  0.00    +0.039 A 
ATOM     27  F   UNL     1      15.869 -30.053   1.267  1.00  0.00    -0.207 F 
ENDBRANCH   1  21
TORSDOF 4
ENDMDL
