MODEL 1
REMARK VINA RESULT:    -8.653      0.000      0.000
REMARK INTER + INTRA:         -12.930
REMARK INTER:                 -11.435
REMARK INTRA:                  -1.495
REMARK UNBOUND:                -1.495
REMARK SMILES CC1(c2ccc(S(N)(=O)=O)cc2)NC(=O)N(CC(=O)c2ccc(F)c(F)c2)C1=O
REMARK SMILES IDX 1 1 2 2 13 3 14 4 15 5 16 6 28 7 29 8 3 10 4 11 12 12 5 13
REMARK SMILES IDX 11 14 6 15 7 16 9 17 10 18 8 19 17 22 18 23 19 24 20 25
REMARK SMILES IDX 21 26 27 27 22 28 25 29 23 30 26 31 24 32
REMARK H PARENT 13 9 8 20 8 21
ROOT
ATOM      1  C   UNL     1      19.162 -23.443   4.796  1.00  0.00    +0.051 C 
ATOM      2  C   UNL     1      18.546 -22.672   3.627  1.00  0.00    +0.144 C 
ATOM      3  N   UNL     1      19.608 -22.111   2.814  1.00  0.00    -0.319 N 
ATOM      4  C   UNL     1      19.582 -22.566   1.519  1.00  0.00    +0.325 C 
ATOM      5  O   UNL     1      20.333 -22.178   0.641  1.00  0.00    -0.248 OA
ATOM      6  N   UNL     1      18.607 -23.504   1.406  1.00  0.00    -0.254 N 
ATOM      7  C   UNL     1      17.947 -23.660   2.594  1.00  0.00    +0.261 C 
ATOM      8  O   UNL     1      17.036 -24.454   2.802  1.00  0.00    -0.271 OA
ATOM      9  H   UNL     1      20.241 -21.376   3.097  1.00  0.00    +0.166 HD
ENDROOT
BRANCH   2  10
ATOM     10  C   UNL     1      17.510 -21.635   4.062  1.00  0.00    -0.013 A 
ATOM     11  C   UNL     1      17.121 -21.556   5.415  1.00  0.00    +0.008 A 
ATOM     12  C   UNL     1      16.893 -20.759   3.149  1.00  0.00    +0.008 A 
ATOM     13  C   UNL     1      16.163 -20.635   5.842  1.00  0.00    +0.022 A 
ATOM     14  C   UNL     1      15.933 -19.833   3.569  1.00  0.00    +0.022 A 
ATOM     15  C   UNL     1      15.567 -19.784   4.913  1.00  0.00    +0.082 A 
BRANCH  15  16
ATOM     16  S   UNL     1      14.338 -18.628   5.454  1.00  0.00    +0.238 S 
ATOM     17  O   UNL     1      13.078 -19.321   5.572  1.00  0.00    -0.207 OA
ATOM     18  O   UNL     1      14.893 -17.835   6.527  1.00  0.00    -0.207 OA
BRANCH  16  19
ATOM     19  N   UNL     1      14.244 -17.594   4.128  1.00  0.00    -0.225 NA
ATOM     20  H   UNL     1      14.181 -16.610   4.390  1.00  0.00    +0.137 HD
ATOM     21  H   UNL     1      13.457 -17.880   3.542  1.00  0.00    +0.137 HD
ENDBRANCH  16  19
ENDBRANCH  15  16
ENDBRANCH   2  10
BRANCH   6  22
ATOM     22  C   UNL     1      18.243 -24.157   0.171  1.00  0.00    +0.211 C 
BRANCH  22  23
ATOM     23  C   UNL     1      17.021 -23.460  -0.423  1.00  0.00    +0.182 C 
ATOM     24  O   UNL     1      15.939 -24.025  -0.580  1.00  0.00    -0.292 OA
BRANCH  23  25
ATOM     25  C   UNL     1      17.153 -22.031  -0.844  1.00  0.00    +0.023 A 
ATOM     26  C   UNL     1      18.003 -21.730  -1.924  1.00  0.00    +0.015 A 
ATOM     27  C   UNL     1      16.469 -20.993  -0.201  1.00  0.00    +0.054 A 
ATOM     28  C   UNL     1      18.164 -20.411  -2.359  1.00  0.00    +0.043 A 
ATOM     29  C   UNL     1      16.638 -19.682  -0.644  1.00  0.00    +0.159 A 
ATOM     30  C   UNL     1      17.478 -19.391  -1.712  1.00  0.00    +0.158 A 
ATOM     31  F   UNL     1      15.979 -18.697  -0.019  1.00  0.00    -0.204 F 
ATOM     32  F   UNL     1      17.631 -18.127  -2.127  1.00  0.00    -0.204 F 
ENDBRANCH  23  25
ENDBRANCH  22  23
ENDBRANCH   6  22
TORSDOF 6
ENDMDL
MODEL 2
REMARK VINA RESULT:    -8.598      1.392      1.970
REMARK INTER + INTRA:         -12.858
REMARK INTER:                 -10.985
REMARK INTRA:                  -1.872
REMARK UNBOUND:                -1.495
REMARK SMILES CC1(c2ccc(S(N)(=O)=O)cc2)NC(=O)N(CC(=O)c2ccc(F)c(F)c2)C1=O
REMARK SMILES IDX 1 1 2 2 13 3 14 4 15 5 16 6 28 7 29 8 3 10 4 11 12 12 5 13
REMARK SMILES IDX 11 14 6 15 7 16 9 17 10 18 8 19 17 22 18 23 19 24 20 25
REMARK SMILES IDX 21 26 27 27 22 28 25 29 23 30 26 31 24 32
REMARK H PARENT 13 9 8 20 8 21
ROOT
ATOM      1  C   UNL     1      19.226 -24.248   4.315  1.00  0.00    +0.051 C 
ATOM      2  C   UNL     1      19.080 -23.215   3.196  1.00  0.00    +0.144 C 
ATOM      3  N   UNL     1      20.379 -22.641   2.904  1.00  0.00    -0.319 N 
ATOM      4  C   UNL     1      20.773 -22.851   1.605  1.00  0.00    +0.325 C 
ATOM      5  O   UNL     1      21.794 -22.398   1.118  1.00  0.00    -0.248 OA
ATOM      6  N   UNL     1      19.851 -23.637   0.993  1.00  0.00    -0.254 N 
ATOM      7  C   UNL     1      18.821 -23.927   1.844  1.00  0.00    +0.261 C 
ATOM      8  O   UNL     1      17.858 -24.638   1.578  1.00  0.00    -0.271 OA
ATOM      9  H   UNL     1      20.912 -22.045   3.522  1.00  0.00    +0.166 HD
ENDROOT
BRANCH   2  10
ATOM     10  C   UNL     1      18.007 -22.164   3.478  1.00  0.00    -0.013 A 
ATOM     11  C   UNL     1      17.412 -22.091   4.754  1.00  0.00    +0.008 A 
ATOM     12  C   UNL     1      17.555 -21.265   2.491  1.00  0.00    +0.008 A 
ATOM     13  C   UNL     1      16.414 -21.156   5.038  1.00  0.00    +0.022 A 
ATOM     14  C   UNL     1      16.558 -20.325   2.768  1.00  0.00    +0.022 A 
ATOM     15  C   UNL     1      15.987 -20.285   4.039  1.00  0.00    +0.082 A 
BRANCH  15  16
ATOM     16  S   UNL     1      14.708 -19.110   4.397  1.00  0.00    +0.238 S 
ATOM     17  O   UNL     1      14.472 -18.317   3.215  1.00  0.00    -0.207 OA
ATOM     18  O   UNL     1      13.647 -19.788   5.105  1.00  0.00    -0.207 OA
BRANCH  16  19
ATOM     19  N   UNL     1      15.465 -18.132   5.540  1.00  0.00    -0.225 NA
ATOM     20  H   UNL     1      16.427 -17.897   5.294  1.00  0.00    +0.137 HD
ATOM     21  H   UNL     1      15.409 -18.587   6.453  1.00  0.00    +0.137 HD
ENDBRANCH  16  19
ENDBRANCH  15  16
ENDBRANCH   2  10
BRANCH   6  22
ATOM     22  C   UNL     1      19.898 -24.011  -0.401  1.00  0.00    +0.211 C 
BRANCH  22  23
ATOM     23  C   UNL     1      19.833 -22.751  -1.261  1.00  0.00    +0.182 C 
ATOM     24  O   UNL     1      20.736 -22.416  -2.026  1.00  0.00    -0.292 OA
BRANCH  23  25
ATOM     25  C   UNL     1      18.622 -21.881  -1.153  1.00  0.00    +0.023 A 
ATOM     26  C   UNL     1      17.355 -22.486  -1.248  1.00  0.00    +0.015 A 
ATOM     27  C   UNL     1      18.708 -20.496  -0.969  1.00  0.00    +0.054 A 
ATOM     28  C   UNL     1      16.190 -21.719  -1.155  1.00  0.00    +0.043 A 
ATOM     29  C   UNL     1      17.538 -19.742  -0.879  1.00  0.00    +0.159 A 
ATOM     30  C   UNL     1      16.290 -20.346  -0.971  1.00  0.00    +0.158 A 
ATOM     31  F   UNL     1      17.633 -18.417  -0.704  1.00  0.00    -0.204 F 
ATOM     32  F   UNL     1      15.175 -19.609  -0.883  1.00  0.00    -0.204 F 
ENDBRANCH  23  25
ENDBRANCH  22  23
ENDBRANCH   6  22
TORSDOF 6
ENDMDL
MODEL 3
REMARK VINA RESULT:    -8.549      3.994      6.751
REMARK INTER + INTRA:         -12.793
REMARK INTER:                 -12.118
REMARK INTRA:                  -0.675
REMARK UNBOUND:                -1.495
REMARK SMILES CC1(c2ccc(S(N)(=O)=O)cc2)NC(=O)N(CC(=O)c2ccc(F)c(F)c2)C1=O
REMARK SMILES IDX 1 1 2 2 13 3 14 4 15 5 16 6 28 7 29 8 3 10 4 11 12 12 5 13
REMARK SMILES IDX 11 14 6 15 7 16 9 17 10 18 8 19 17 22 18 23 19 24 20 25
REMARK SMILES IDX 21 26 27 27 22 28 25 29 23 30 26 31 24 32
REMARK H PARENT 13 9 8 20 8 21
ROOT
ATOM      1  C   UNL     1      18.226 -22.549  -2.290  1.00  0.00    +0.051 C 
ATOM      2  C   UNL     1      18.458 -21.577  -1.132  1.00  0.00    +0.144 C 
ATOM      3  N   UNL     1      18.717 -20.253  -1.664  1.00  0.00    -0.319 N 
ATOM      4  C   UNL     1      17.800 -19.322  -1.244  1.00  0.00    +0.325 C 
ATOM      5  O   UNL     1      17.861 -18.134  -1.507  1.00  0.00    -0.248 OA
ATOM      6  N   UNL     1      16.843 -19.953  -0.515  1.00  0.00    -0.254 N 
ATOM      7  C   UNL     1      17.121 -21.286  -0.403  1.00  0.00    +0.261 C 
ATOM      8  O   UNL     1      16.422 -22.112   0.174  1.00  0.00    -0.271 OA
ATOM      9  H   UNL     1      19.536 -19.981  -2.190  1.00  0.00    +0.166 HD
ENDROOT
BRANCH   2  10
ATOM     10  C   UNL     1      19.529 -22.051  -0.148  1.00  0.00    -0.013 A 
ATOM     11  C   UNL     1      19.538 -21.556   1.172  1.00  0.00    +0.008 A 
ATOM     12  C   UNL     1      20.544 -22.955  -0.519  1.00  0.00    +0.008 A 
ATOM     13  C   UNL     1      20.515 -21.953   2.088  1.00  0.00    +0.022 A 
ATOM     14  C   UNL     1      21.524 -23.357   0.393  1.00  0.00    +0.022 A 
ATOM     15  C   UNL     1      21.508 -22.845   1.689  1.00  0.00    +0.082 A 
BRANCH  15  16
ATOM     16  S   UNL     1      22.756 -23.333   2.849  1.00  0.00    +0.238 S 
ATOM     17  O   UNL     1      23.173 -24.678   2.533  1.00  0.00    -0.207 OA
ATOM     18  O   UNL     1      23.693 -22.244   3.003  1.00  0.00    -0.207 OA
BRANCH  16  19
ATOM     19  N   UNL     1      21.877 -23.383   4.285  1.00  0.00    -0.225 NA
ATOM     20  H   UNL     1      21.695 -24.332   4.611  1.00  0.00    +0.137 HD
ATOM     21  H   UNL     1      21.011 -22.855   4.160  1.00  0.00    +0.137 HD
ENDBRANCH  16  19
ENDBRANCH  15  16
ENDBRANCH   2  10
BRANCH   6  22
ATOM     22  C   UNL     1      15.750 -19.281   0.146  1.00  0.00    +0.211 C 
BRANCH  22  23
ATOM     23  C   UNL     1      16.127 -19.026   1.604  1.00  0.00    +0.182 C 
ATOM     24  O   UNL     1      17.241 -19.282   2.061  1.00  0.00    -0.292 OA
BRANCH  23  25
ATOM     25  C   UNL     1      15.090 -18.454   2.516  1.00  0.00    +0.023 A 
ATOM     26  C   UNL     1      14.343 -17.350   2.068  1.00  0.00    +0.015 A 
ATOM     27  C   UNL     1      14.844 -18.976   3.792  1.00  0.00    +0.054 A 
ATOM     28  C   UNL     1      13.361 -16.775   2.881  1.00  0.00    +0.043 A 
ATOM     29  C   UNL     1      13.862 -18.394   4.594  1.00  0.00    +0.159 A 
ATOM     30  C   UNL     1      13.127 -17.303   4.144  1.00  0.00    +0.158 A 
ATOM     31  F   UNL     1      13.637 -18.900   5.813  1.00  0.00    -0.204 F 
ATOM     32  F   UNL     1      12.187 -16.754   4.925  1.00  0.00    -0.204 F 
ENDBRANCH  23  25
ENDBRANCH  22  23
ENDBRANCH   6  22
TORSDOF 6
ENDMDL
MODEL 4
REMARK VINA RESULT:    -8.473      2.692      4.628
REMARK INTER + INTRA:         -12.692
REMARK INTER:                 -11.434
REMARK INTRA:                  -1.258
REMARK UNBOUND:                -1.495
REMARK SMILES CC1(c2ccc(S(N)(=O)=O)cc2)NC(=O)N(CC(=O)c2ccc(F)c(F)c2)C1=O
REMARK SMILES IDX 1 1 2 2 13 3 14 4 15 5 16 6 28 7 29 8 3 10 4 11 12 12 5 13
REMARK SMILES IDX 11 14 6 15 7 16 9 17 10 18 8 19 17 22 18 23 19 24 20 25
REMARK SMILES IDX 21 26 27 27 22 28 25 29 23 30 26 31 24 32
REMARK H PARENT 13 9 8 20 8 21
ROOT
ATOM      1  C   UNL     1      17.520 -18.318  -0.952  1.00  0.00    +0.051 C 
ATOM      2  C   UNL     1      16.735 -19.481  -0.342  1.00  0.00    +0.144 C 
ATOM      3  N   UNL     1      15.780 -19.974  -1.315  1.00  0.00    -0.319 N 
ATOM      4  C   UNL     1      15.982 -21.293  -1.637  1.00  0.00    +0.325 C 
ATOM      5  O   UNL     1      15.259 -21.936  -2.378  1.00  0.00    -0.248 OA
ATOM      6  N   UNL     1      17.103 -21.728  -1.007  1.00  0.00    -0.254 N 
ATOM      7  C   UNL     1      17.638 -20.736  -0.233  1.00  0.00    +0.261 C 
ATOM      8  O   UNL     1      18.665 -20.827   0.430  1.00  0.00    -0.271 OA
ATOM      9  H   UNL     1      14.970 -19.472  -1.652  1.00  0.00    +0.166 HD
ENDROOT
BRANCH   2  10
ATOM     10  C   UNL     1      16.100 -19.142   1.007  1.00  0.00    -0.013 A 
ATOM     11  C   UNL     1      16.414 -19.912   2.145  1.00  0.00    +0.008 A 
ATOM     12  C   UNL     1      15.172 -18.092   1.159  1.00  0.00    +0.008 A 
ATOM     13  C   UNL     1      15.835 -19.641   3.387  1.00  0.00    +0.022 A 
ATOM     14  C   UNL     1      14.590 -17.815   2.399  1.00  0.00    +0.022 A 
ATOM     15  C   UNL     1      14.918 -18.599   3.504  1.00  0.00    +0.082 A 
BRANCH  15  16
ATOM     16  S   UNL     1      14.172 -18.269   5.077  1.00  0.00    +0.238 S 
ATOM     17  O   UNL     1      13.539 -16.973   5.020  1.00  0.00    -0.207 OA
ATOM     18  O   UNL     1      13.475 -19.457   5.514  1.00  0.00    -0.207 OA
BRANCH  16  19
ATOM     19  N   UNL     1      15.527 -18.145   6.070  1.00  0.00    -0.225 NA
ATOM     20  H   UNL     1      15.484 -18.758   6.885  1.00  0.00    +0.137 HD
ATOM     21  H   UNL     1      15.651 -17.167   6.339  1.00  0.00    +0.137 HD
ENDBRANCH  16  19
ENDBRANCH  15  16
ENDBRANCH   2  10
BRANCH   6  22
ATOM     22  C   UNL     1      17.591 -23.086  -1.057  1.00  0.00    +0.211 C 
BRANCH  22  23
ATOM     23  C   UNL     1      16.919 -23.900   0.046  1.00  0.00    +0.182 C 
ATOM     24  O   UNL     1      15.918 -24.590  -0.147  1.00  0.00    -0.292 OA
BRANCH  23  25
ATOM     25  C   UNL     1      17.498 -23.842   1.423  1.00  0.00    +0.023 A 
ATOM     26  C   UNL     1      18.778 -24.387   1.633  1.00  0.00    +0.015 A 
ATOM     27  C   UNL     1      16.810 -23.273   2.502  1.00  0.00    +0.054 A 
ATOM     28  C   UNL     1      19.366 -24.360   2.901  1.00  0.00    +0.043 A 
ATOM     29  C   UNL     1      17.407 -23.253   3.762  1.00  0.00    +0.159 A 
ATOM     30  C   UNL     1      18.673 -23.791   3.962  1.00  0.00    +0.158 A 
ATOM     31  F   UNL     1      16.739 -22.707   4.787  1.00  0.00    -0.204 F 
ATOM     32  F   UNL     1      19.234 -23.765   5.178  1.00  0.00    -0.204 F 
ENDBRANCH  23  25
ENDBRANCH  22  23
ENDBRANCH   6  22
TORSDOF 6
ENDMDL
MODEL 5
REMARK VINA RESULT:    -8.453      3.736      6.548
REMARK INTER + INTRA:         -12.666
REMARK INTER:                 -11.635
REMARK INTRA:                  -1.031
REMARK UNBOUND:                -1.495
REMARK SMILES CC1(c2ccc(S(N)(=O)=O)cc2)NC(=O)N(CC(=O)c2ccc(F)c(F)c2)C1=O
REMARK SMILES IDX 1 1 2 2 13 3 14 4 15 5 16 6 28 7 29 8 3 10 4 11 12 12 5 13
REMARK SMILES IDX 11 14 6 15 7 16 9 17 10 18 8 19 17 22 18 23 19 24 20 25
REMARK SMILES IDX 21 26 27 27 22 28 25 29 23 30 26 31 24 32
REMARK H PARENT 13 9 8 20 8 21
ROOT
ATOM      1  C   UNL     1      18.479 -22.510  -2.519  1.00  0.00    +0.051 C 
ATOM      2  C   UNL     1      18.491 -21.575  -1.308  1.00  0.00    +0.144 C 
ATOM      3  N   UNL     1      18.776 -20.224  -1.752  1.00  0.00    -0.319 N 
ATOM      4  C   UNL     1      17.768 -19.342  -1.449  1.00  0.00    +0.325 C 
ATOM      5  O   UNL     1      17.820 -18.143  -1.663  1.00  0.00    -0.248 OA
ATOM      6  N   UNL     1      16.737 -20.032  -0.899  1.00  0.00    -0.254 N 
ATOM      7  C   UNL     1      17.047 -21.358  -0.787  1.00  0.00    +0.261 C 
ATOM      8  O   UNL     1      16.302 -22.229  -0.351  1.00  0.00    -0.271 OA
ATOM      9  H   UNL     1      19.654 -19.903  -2.136  1.00  0.00    +0.166 HD
ENDROOT
BRANCH   2  10
ATOM     10  C   UNL     1      19.416 -22.047  -0.186  1.00  0.00    -0.013 A 
ATOM     11  C   UNL     1      20.282 -23.138  -0.403  1.00  0.00    +0.008 A 
ATOM     12  C   UNL     1      19.420 -21.448   1.089  1.00  0.00    +0.008 A 
ATOM     13  C   UNL     1      21.124 -23.608   0.608  1.00  0.00    +0.022 A 
ATOM     14  C   UNL     1      20.261 -21.912   2.105  1.00  0.00    +0.022 A 
ATOM     15  C   UNL     1      21.101 -22.996   1.860  1.00  0.00    +0.082 A 
BRANCH  15  16
ATOM     16  S   UNL     1      22.158 -23.605   3.145  1.00  0.00    +0.238 S 
ATOM     17  O   UNL     1      21.366 -23.799   4.335  1.00  0.00    -0.207 OA
ATOM     18  O   UNL     1      23.002 -24.641   2.594  1.00  0.00    -0.207 OA
BRANCH  16  19
ATOM     19  N   UNL     1      23.170 -22.283   3.400  1.00  0.00    -0.225 NA
ATOM     20  H   UNL     1      22.863 -21.686   4.169  1.00  0.00    +0.137 HD
ATOM     21  H   UNL     1      23.255 -21.759   2.527  1.00  0.00    +0.137 HD
ENDBRANCH  16  19
ENDBRANCH  15  16
ENDBRANCH   2  10
BRANCH   6  22
ATOM     22  C   UNL     1      15.528 -19.424  -0.393  1.00  0.00    +0.211 C 
BRANCH  22  23
ATOM     23  C   UNL     1      15.871 -18.564   0.821  1.00  0.00    +0.182 C 
ATOM     24  O   UNL     1      16.213 -17.385   0.731  1.00  0.00    -0.292 OA
BRANCH  23  25
ATOM     25  C   UNL     1      15.800 -19.190   2.177  1.00  0.00    +0.023 A 
ATOM     26  C   UNL     1      14.841 -18.706   3.085  1.00  0.00    +0.015 A 
ATOM     27  C   UNL     1      16.653 -20.228   2.569  1.00  0.00    +0.054 A 
ATOM     28  C   UNL     1      14.732 -19.255   4.367  1.00  0.00    +0.043 A 
ATOM     29  C   UNL     1      16.535 -20.767   3.850  1.00  0.00    +0.159 A 
ATOM     30  C   UNL     1      15.584 -20.286   4.742  1.00  0.00    +0.158 A 
ATOM     31  F   UNL     1      17.358 -21.760   4.214  1.00  0.00    -0.204 F 
ATOM     32  F   UNL     1      15.482 -20.812   5.969  1.00  0.00    -0.204 F 
ENDBRANCH  23  25
ENDBRANCH  22  23
ENDBRANCH   6  22
TORSDOF 6
ENDMDL
MODEL 6
REMARK VINA RESULT:    -8.404      4.287      8.115
REMARK INTER + INTRA:         -12.600
REMARK INTER:                 -11.942
REMARK INTRA:                  -0.658
REMARK UNBOUND:                -1.495
REMARK SMILES CC1(c2ccc(S(N)(=O)=O)cc2)NC(=O)N(CC(=O)c2ccc(F)c(F)c2)C1=O
REMARK SMILES IDX 1 1 2 2 13 3 14 4 15 5 16 6 28 7 29 8 3 10 4 11 12 12 5 13
REMARK SMILES IDX 11 14 6 15 7 16 9 17 10 18 8 19 17 22 18 23 19 24 20 25
REMARK SMILES IDX 21 26 27 27 22 28 25 29 23 30 26 31 24 32
REMARK H PARENT 13 9 8 20 8 21
ROOT
ATOM      1  C   UNL     1      15.760 -22.672  -1.278  1.00  0.00    +0.051 C 
ATOM      2  C   UNL     1      16.856 -21.616  -1.133  1.00  0.00    +0.144 C 
ATOM      3  N   UNL     1      16.343 -20.332  -1.571  1.00  0.00    -0.319 N 
ATOM      4  C   UNL     1      16.372 -19.383  -0.580  1.00  0.00    +0.325 C 
ATOM      5  O   UNL     1      16.057 -18.216  -0.739  1.00  0.00    -0.248 OA
ATOM      6  N   UNL     1      16.792 -19.968   0.571  1.00  0.00    -0.254 N 
ATOM      7  C   UNL     1      17.086 -21.287   0.363  1.00  0.00    +0.261 C 
ATOM      8  O   UNL     1      17.463 -22.075   1.224  1.00  0.00    -0.271 OA
ATOM      9  H   UNL     1      16.094 -20.090  -2.520  1.00  0.00    +0.166 HD
ENDROOT
BRANCH   2  10
ATOM     10  C   UNL     1      18.167 -22.005  -1.819  1.00  0.00    -0.013 A 
ATOM     11  C   UNL     1      18.549 -21.368  -3.017  1.00  0.00    +0.008 A 
ATOM     12  C   UNL     1      19.012 -23.012  -1.311  1.00  0.00    +0.008 A 
ATOM     13  C   UNL     1      19.730 -21.715  -3.679  1.00  0.00    +0.022 A 
ATOM     14  C   UNL     1      20.195 -23.363  -1.967  1.00  0.00    +0.022 A 
ATOM     15  C   UNL     1      20.541 -22.719  -3.153  1.00  0.00    +0.082 A 
BRANCH  15  16
ATOM     16  S   UNL     1      22.029 -23.168  -4.004  1.00  0.00    +0.238 S 
ATOM     17  O   UNL     1      22.306 -22.164  -5.002  1.00  0.00    -0.207 OA
ATOM     18  O   UNL     1      23.009 -23.587  -3.028  1.00  0.00    -0.207 OA
BRANCH  16  19
ATOM     19  N   UNL     1      21.549 -24.574  -4.797  1.00  0.00    -0.225 NA
ATOM     20  H   UNL     1      20.826 -25.091  -4.296  1.00  0.00    +0.137 HD
ATOM     21  H   UNL     1      22.372 -25.152  -4.973  1.00  0.00    +0.137 HD
ENDBRANCH  16  19
ENDBRANCH  15  16
ENDBRANCH   2  10
BRANCH   6  22
ATOM     22  C   UNL     1      17.011 -19.261   1.811  1.00  0.00    +0.211 C 
BRANCH  22  23
ATOM     23  C   UNL     1      15.706 -19.226   2.604  1.00  0.00    +0.182 C 
ATOM     24  O   UNL     1      14.761 -18.496   2.305  1.00  0.00    -0.292 OA
BRANCH  23  25
ATOM     25  C   UNL     1      15.582 -20.108   3.804  1.00  0.00    +0.023 A 
ATOM     26  C   UNL     1      14.547 -19.846   4.720  1.00  0.00    +0.015 A 
ATOM     27  C   UNL     1      16.457 -21.174   4.046  1.00  0.00    +0.054 A 
ATOM     28  C   UNL     1      14.385 -20.639   5.860  1.00  0.00    +0.043 A 
ATOM     29  C   UNL     1      16.285 -21.958   5.187  1.00  0.00    +0.159 A 
ATOM     30  C   UNL     1      15.259 -21.694   6.087  1.00  0.00    +0.158 A 
ATOM     31  F   UNL     1      17.130 -22.974   5.408  1.00  0.00    -0.204 F 
ATOM     32  F   UNL     1      15.107 -22.455   7.178  1.00  0.00    -0.204 F 
ENDBRANCH  23  25
ENDBRANCH  22  23
ENDBRANCH   6  22
TORSDOF 6
ENDMDL
MODEL 7
REMARK VINA RESULT:    -8.386      2.679      4.847
REMARK INTER + INTRA:         -12.578
REMARK INTER:                 -11.072
REMARK INTRA:                  -1.506
REMARK UNBOUND:                -1.495
REMARK SMILES CC1(c2ccc(S(N)(=O)=O)cc2)NC(=O)N(CC(=O)c2ccc(F)c(F)c2)C1=O
REMARK SMILES IDX 1 1 2 2 13 3 14 4 15 5 16 6 28 7 29 8 3 10 4 11 12 12 5 13
REMARK SMILES IDX 11 14 6 15 7 16 9 17 10 18 8 19 17 22 18 23 19 24 20 25
REMARK SMILES IDX 21 26 27 27 22 28 25 29 23 30 26 31 24 32
REMARK H PARENT 13 9 8 20 8 21
ROOT
ATOM      1  C   UNL     1      17.390 -18.586  -0.659  1.00  0.00    +0.051 C 
ATOM      2  C   UNL     1      16.749 -19.594   0.297  1.00  0.00    +0.144 C 
ATOM      3  N   UNL     1      16.065 -20.614  -0.474  1.00  0.00    -0.319 N 
ATOM      4  C   UNL     1      16.555 -21.875  -0.240  1.00  0.00    +0.325 C 
ATOM      5  O   UNL     1      16.088 -22.892  -0.722  1.00  0.00    -0.248 OA
ATOM      6  N   UNL     1      17.626 -21.778   0.590  1.00  0.00    -0.254 N 
ATOM      7  C   UNL     1      17.840 -20.477   0.952  1.00  0.00    +0.261 C 
ATOM      8  O   UNL     1      18.751 -20.081   1.672  1.00  0.00    -0.271 OA
ATOM      9  H   UNL     1      15.239 -20.471  -1.038  1.00  0.00    +0.166 HD
ENDROOT
BRANCH   2  10
ATOM     10  C   UNL     1      15.859 -18.943   1.357  1.00  0.00    -0.013 A 
ATOM     11  C   UNL     1      15.731 -19.536   2.629  1.00  0.00    +0.008 A 
ATOM     12  C   UNL     1      15.123 -17.768   1.103  1.00  0.00    +0.008 A 
ATOM     13  C   UNL     1      14.911 -18.978   3.612  1.00  0.00    +0.022 A 
ATOM     14  C   UNL     1      14.301 -17.203   2.082  1.00  0.00    +0.022 A 
ATOM     15  C   UNL     1      14.192 -17.818   3.328  1.00  0.00    +0.082 A 
BRANCH  15  16
ATOM     16  S   UNL     1      13.139 -17.122   4.571  1.00  0.00    +0.238 S 
ATOM     17  O   UNL     1      13.942 -16.298   5.442  1.00  0.00    -0.207 OA
ATOM     18  O   UNL     1      11.934 -16.639   3.936  1.00  0.00    -0.207 OA
BRANCH  16  19
ATOM     19  N   UNL     1      12.680 -18.497   5.429  1.00  0.00    -0.225 NA
ATOM     20  H   UNL     1      12.256 -18.284   6.332  1.00  0.00    +0.137 HD
ATOM     21  H   UNL     1      13.491 -19.110   5.528  1.00  0.00    +0.137 HD
ENDBRANCH  16  19
ENDBRANCH  15  16
ENDBRANCH   2  10
BRANCH   6  22
ATOM     22  C   UNL     1      18.358 -22.909   1.109  1.00  0.00    +0.211 C 
BRANCH  22  23
ATOM     23  C   UNL     1      17.502 -23.625   2.151  1.00  0.00    +0.182 C 
ATOM     24  O   UNL     1      17.074 -24.769   1.994  1.00  0.00    -0.292 OA
BRANCH  23  25
ATOM     25  C   UNL     1      17.157 -22.895   3.409  1.00  0.00    +0.023 A 
ATOM     26  C   UNL     1      18.207 -22.400   4.202  1.00  0.00    +0.015 A 
ATOM     27  C   UNL     1      15.834 -22.696   3.822  1.00  0.00    +0.054 A 
ATOM     28  C   UNL     1      17.941 -21.710   5.389  1.00  0.00    +0.043 A 
ATOM     29  C   UNL     1      15.581 -22.007   5.008  1.00  0.00    +0.159 A 
ATOM     30  C   UNL     1      16.624 -21.518   5.786  1.00  0.00    +0.158 A 
ATOM     31  F   UNL     1      14.311 -21.824   5.393  1.00  0.00    -0.204 F 
ATOM     32  F   UNL     1      16.367 -20.859   6.923  1.00  0.00    -0.204 F 
ENDBRANCH  23  25
ENDBRANCH  22  23
ENDBRANCH   6  22
TORSDOF 6
ENDMDL
MODEL 8
REMARK VINA RESULT:    -8.233      4.296      7.800
REMARK INTER + INTRA:         -12.375
REMARK INTER:                 -11.943
REMARK INTRA:                  -0.432
REMARK UNBOUND:                -1.495
REMARK SMILES CC1(c2ccc(S(N)(=O)=O)cc2)NC(=O)N(CC(=O)c2ccc(F)c(F)c2)C1=O
REMARK SMILES IDX 1 1 2 2 13 3 14 4 15 5 16 6 28 7 29 8 3 10 4 11 12 12 5 13
REMARK SMILES IDX 11 14 6 15 7 16 9 17 10 18 8 19 17 22 18 23 19 24 20 25
REMARK SMILES IDX 21 26 27 27 22 28 25 29 23 30 26 31 24 32
REMARK H PARENT 13 9 8 20 8 21
ROOT
ATOM      1  C   UNL     1      16.090 -23.056  -0.498  1.00  0.00    +0.051 C 
ATOM      2  C   UNL     1      16.961 -21.800  -0.438  1.00  0.00    +0.144 C 
ATOM      3  N   UNL     1      16.180 -20.657  -0.870  1.00  0.00    -0.319 N 
ATOM      4  C   UNL     1      16.074 -19.690   0.099  1.00  0.00    +0.325 C 
ATOM      5  O   UNL     1      15.525 -18.614  -0.064  1.00  0.00    -0.248 OA
ATOM      6  N   UNL     1      16.663 -20.145   1.235  1.00  0.00    -0.254 N 
ATOM      7  C   UNL     1      17.201 -21.386   1.036  1.00  0.00    +0.261 C 
ATOM      8  O   UNL     1      17.772 -22.058   1.888  1.00  0.00    -0.271 OA
ATOM      9  H   UNL     1      15.838 -20.497  -1.807  1.00  0.00    +0.166 HD
ENDROOT
BRANCH   2  10
ATOM     10  C   UNL     1      18.284 -21.944  -1.191  1.00  0.00    -0.013 A 
ATOM     11  C   UNL     1      18.388 -21.490  -2.522  1.00  0.00    +0.008 A 
ATOM     12  C   UNL     1      19.418 -22.548  -0.612  1.00  0.00    +0.008 A 
ATOM     13  C   UNL     1      19.576 -21.626  -3.245  1.00  0.00    +0.022 A 
ATOM     14  C   UNL     1      20.610 -22.686  -1.329  1.00  0.00    +0.022 A 
ATOM     15  C   UNL     1      20.678 -22.233  -2.645  1.00  0.00    +0.082 A 
BRANCH  15  16
ATOM     16  S   UNL     1      22.178 -22.419  -3.570  1.00  0.00    +0.238 S 
ATOM     17  O   UNL     1      23.222 -22.840  -2.667  1.00  0.00    -0.207 OA
ATOM     18  O   UNL     1      21.878 -23.122  -4.796  1.00  0.00    -0.207 OA
BRANCH  16  19
ATOM     19  N   UNL     1      22.491 -20.827  -4.023  1.00  0.00    -0.225 NA
ATOM     20  H   UNL     1      21.646 -20.260  -4.105  1.00  0.00    +0.137 HD
ATOM     21  H   UNL     1      23.028 -20.831  -4.892  1.00  0.00    +0.137 HD
ENDBRANCH  16  19
ENDBRANCH  15  16
ENDBRANCH   2  10
BRANCH   6  22
ATOM     22  C   UNL     1      16.803 -19.372   2.446  1.00  0.00    +0.211 C 
BRANCH  22  23
ATOM     23  C   UNL     1      15.758 -19.834   3.459  1.00  0.00    +0.182 C 
ATOM     24  O   UNL     1      15.777 -20.951   3.976  1.00  0.00    -0.292 OA
BRANCH  23  25
ATOM     25  C   UNL     1      14.657 -18.891   3.824  1.00  0.00    +0.023 A 
ATOM     26  C   UNL     1      14.269 -17.922   2.882  1.00  0.00    +0.015 A 
ATOM     27  C   UNL     1      14.010 -18.938   5.065  1.00  0.00    +0.054 A 
ATOM     28  C   UNL     1      13.245 -17.015   3.172  1.00  0.00    +0.043 A 
ATOM     29  C   UNL     1      12.991 -18.027   5.343  1.00  0.00    +0.159 A 
ATOM     30  C   UNL     1      12.611 -17.074   4.406  1.00  0.00    +0.158 A 
ATOM     31  F   UNL     1      12.380 -18.081   6.534  1.00  0.00    -0.204 F 
ATOM     32  F   UNL     1      11.631 -16.205   4.686  1.00  0.00    -0.204 F 
ENDBRANCH  23  25
ENDBRANCH  22  23
ENDBRANCH   6  22
TORSDOF 6
ENDMDL
MODEL 9
REMARK VINA RESULT:    -8.084      4.117      7.475
REMARK INTER + INTRA:         -12.179
REMARK INTER:                 -11.363
REMARK INTRA:                  -0.815
REMARK UNBOUND:                -1.495
REMARK SMILES CC1(c2ccc(S(N)(=O)=O)cc2)NC(=O)N(CC(=O)c2ccc(F)c(F)c2)C1=O
REMARK SMILES IDX 1 1 2 2 13 3 14 4 15 5 16 6 28 7 29 8 3 10 4 11 12 12 5 13
REMARK SMILES IDX 11 14 6 15 7 16 9 17 10 18 8 19 17 22 18 23 19 24 20 25
REMARK SMILES IDX 21 26 27 27 22 28 25 29 23 30 26 31 24 32
REMARK H PARENT 13 9 8 20 8 21
ROOT
ATOM      1  C   UNL     1      21.196 -22.972   1.909  1.00  0.00    +0.051 C 
ATOM      2  C   UNL     1      19.880 -23.088   1.138  1.00  0.00    +0.144 C 
ATOM      3  N   UNL     1      19.297 -24.393   1.385  1.00  0.00    -0.319 N 
ATOM      4  C   UNL     1      18.055 -24.318   1.964  1.00  0.00    +0.325 C 
ATOM      5  O   UNL     1      17.348 -25.284   2.197  1.00  0.00    -0.248 OA
ATOM      6  N   UNL     1      17.776 -23.016   2.230  1.00  0.00    -0.254 N 
ATOM      7  C   UNL     1      18.792 -22.208   1.803  1.00  0.00    +0.261 C 
ATOM      8  O   UNL     1      18.833 -20.989   1.932  1.00  0.00    -0.271 OA
ATOM      9  H   UNL     1      19.676 -25.276   1.072  1.00  0.00    +0.166 HD
ENDROOT
BRANCH   2  10
ATOM     10  C   UNL     1      20.019 -22.763  -0.349  1.00  0.00    -0.013 A 
ATOM     11  C   UNL     1      21.285 -22.821  -0.967  1.00  0.00    +0.008 A 
ATOM     12  C   UNL     1      18.920 -22.370  -1.139  1.00  0.00    +0.008 A 
ATOM     13  C   UNL     1      21.448 -22.509  -2.318  1.00  0.00    +0.022 A 
ATOM     14  C   UNL     1      19.075 -22.058  -2.493  1.00  0.00    +0.022 A 
ATOM     15  C   UNL     1      20.342 -22.120  -3.071  1.00  0.00    +0.082 A 
BRANCH  15  16
ATOM     16  S   UNL     1      20.556 -21.708  -4.782  1.00  0.00    +0.238 S 
ATOM     17  O   UNL     1      21.695 -20.830  -4.902  1.00  0.00    -0.207 OA
ATOM     18  O   UNL     1      20.417 -22.914  -5.566  1.00  0.00    -0.207 OA
BRANCH  16  19
ATOM     19  N   UNL     1      19.166 -20.806  -5.085  1.00  0.00    -0.225 NA
ATOM     20  H   UNL     1      19.024 -20.051  -4.414  1.00  0.00    +0.137 HD
ATOM     21  H   UNL     1      18.364 -21.437  -5.117  1.00  0.00    +0.137 HD
ENDBRANCH  16  19
ENDBRANCH  15  16
ENDBRANCH   2  10
BRANCH   6  22
ATOM     22  C   UNL     1      16.526 -22.547   2.780  1.00  0.00    +0.211 C 
BRANCH  22  23
ATOM     23  C   UNL     1      16.711 -22.258   4.268  1.00  0.00    +0.182 C 
ATOM     24  O   UNL     1      17.480 -22.899   4.984  1.00  0.00    -0.292 OA
BRANCH  23  25
ATOM     25  C   UNL     1      15.908 -21.156   4.882  1.00  0.00    +0.023 A 
ATOM     26  C   UNL     1      14.511 -21.183   4.727  1.00  0.00    +0.015 A 
ATOM     27  C   UNL     1      16.499 -20.105   5.594  1.00  0.00    +0.054 A 
ATOM     28  C   UNL     1      13.712 -20.177   5.280  1.00  0.00    +0.043 A 
ATOM     29  C   UNL     1      15.692 -19.107   6.140  1.00  0.00    +0.159 A 
ATOM     30  C   UNL     1      14.311 -19.141   5.986  1.00  0.00    +0.158 A 
ATOM     31  F   UNL     1      16.269 -18.106   6.818  1.00  0.00    -0.204 F 
ATOM     32  F   UNL     1      13.548 -18.176   6.515  1.00  0.00    -0.204 F 
ENDBRANCH  23  25
ENDBRANCH  22  23
ENDBRANCH   6  22
TORSDOF 6
ENDMDL
