MODEL 1
REMARK VINA RESULT:    -8.331      0.000      0.000
REMARK INTER + INTRA:         -12.783
REMARK INTER:                 -11.253
REMARK INTRA:                  -1.530
REMARK UNBOUND:                -1.530
REMARK SMILES O=C(NC(=O)c1ccsc1NC(=O)c1nc2ccccc2s1)OCC1CCC1
REMARK SMILES IDX 1 1 2 2 3 3 4 4 5 5 23 7 24 8 25 9 26 10 28 11 27 12 6 13
REMARK SMILES IDX 7 14 10 15 8 16 9 17 11 18 12 19 13 20 14 22 15 23 22 24
REMARK SMILES IDX 16 25 21 26 17 27 20 28 18 29 19 30
REMARK H PARENT 3 6 11 21
ROOT
ATOM      1  O   UNL     1      17.385 -21.549   5.809  1.00  0.00    -0.224 OA
ATOM      2  C   UNL     1      16.555 -21.518   4.918  1.00  0.00    +0.414 C 
ATOM      3  N   UNL     1      15.672 -20.520   4.631  1.00  0.00    -0.257 N 
ATOM      4  C   UNL     1      15.650 -19.281   5.228  1.00  0.00    +0.263 C 
ATOM      5  O   UNL     1      16.442 -18.905   6.086  1.00  0.00    -0.269 OA
ATOM      6  H   UNL     1      15.072 -20.721   3.851  1.00  0.00    +0.176 HD
ENDROOT
BRANCH   2   7
ATOM      7  O   UNL     1      16.336 -22.529   4.034  1.00  0.00    -0.449 OA
BRANCH   7   8
ATOM      8  C   UNL     1      16.965 -22.406   2.745  1.00  0.00    +0.238 C 
BRANCH   8   9
ATOM      9  C   UNL     1      16.895 -23.745   2.034  1.00  0.00    +0.027 C 
ATOM     10  C   UNL     1      16.141 -23.757   0.679  1.00  0.00    +0.007 C 
ATOM     11  C   UNL     1      18.145 -24.206   1.236  1.00  0.00    +0.007 C 
ATOM     12  C   UNL     1      17.171 -24.800   0.199  1.00  0.00    +0.001 C 
ENDBRANCH   8   9
ENDBRANCH   7   8
ENDBRANCH   2   7
BRANCH   4  13
ATOM     13  C   UNL     1      14.595 -18.378   4.733  1.00  0.00    +0.075 A 
ATOM     14  C   UNL     1      13.693 -17.564   5.515  1.00  0.00    +0.028 A 
ATOM     15  C   UNL     1      14.353 -18.191   3.375  1.00  0.00    +0.108 A 
ATOM     16  C   UNL     1      12.819 -16.839   4.738  1.00  0.00    +0.068 A 
ATOM     17  S   UNL     1      13.072 -17.115   3.080  1.00  0.00    -0.126 S 
BRANCH  15  18
ATOM     18  N   UNL     1      15.043 -18.790   2.333  1.00  0.00    -0.311 N 
ATOM     19  C   UNL     1      15.632 -18.193   1.227  1.00  0.00    +0.285 C 
ATOM     20  O   UNL     1      15.627 -16.992   0.973  1.00  0.00    -0.266 OA
ATOM     21  H   UNL     1      15.149 -19.809   2.389  1.00  0.00    +0.171 HD
BRANCH  19  22
ATOM     22  C   UNL     1      16.278 -19.188   0.366  1.00  0.00    +0.182 A 
ATOM     23  N   UNL     1      17.534 -19.557   0.533  1.00  0.00    -0.231 NA
ATOM     24  S   UNL     1      15.435 -19.940  -0.918  1.00  0.00    -0.109 S 
ATOM     25  C   UNL     1      17.869 -20.502  -0.422  1.00  0.00    +0.082 A 
ATOM     26  C   UNL     1      16.848 -20.845  -1.310  1.00  0.00    +0.055 A 
ATOM     27  C   UNL     1      19.126 -21.127  -0.559  1.00  0.00    +0.030 A 
ATOM     28  C   UNL     1      17.039 -21.791  -2.331  1.00  0.00    +0.021 A 
ATOM     29  C   UNL     1      19.327 -22.070  -1.572  1.00  0.00    +0.002 A 
ATOM     30  C   UNL     1      18.295 -22.396  -2.446  1.00  0.00    +0.002 A 
ENDBRANCH  19  22
ENDBRANCH  15  18
ENDBRANCH   4  13
TORSDOF 6
ENDMDL
MODEL 2
REMARK VINA RESULT:    -8.159      2.718      7.012
REMARK INTER + INTRA:         -12.551
REMARK INTER:                 -11.457
REMARK INTRA:                  -1.094
REMARK UNBOUND:                -1.530
REMARK SMILES O=C(NC(=O)c1ccsc1NC(=O)c1nc2ccccc2s1)OCC1CCC1
REMARK SMILES IDX 1 1 2 2 3 3 4 4 5 5 23 7 24 8 25 9 26 10 28 11 27 12 6 13
REMARK SMILES IDX 7 14 10 15 8 16 9 17 11 18 12 19 13 20 14 22 15 23 22 24
REMARK SMILES IDX 16 25 21 26 17 27 20 28 18 29 19 30
REMARK H PARENT 3 6 11 21
ROOT
ATOM      1  O   UNL     1      14.406 -21.938  -1.879  1.00  0.00    -0.224 OA
ATOM      2  C   UNL     1      15.581 -21.835  -1.577  1.00  0.00    +0.414 C 
ATOM      3  N   UNL     1      16.286 -22.592  -0.689  1.00  0.00    -0.257 N 
ATOM      4  C   UNL     1      15.819 -23.722  -0.059  1.00  0.00    +0.263 C 
ATOM      5  O   UNL     1      14.707 -24.210  -0.235  1.00  0.00    -0.269 OA
ATOM      6  H   UNL     1      17.246 -22.315  -0.593  1.00  0.00    +0.176 HD
ENDROOT
BRANCH   2   7
ATOM      7  O   UNL     1      16.423 -20.888  -2.071  1.00  0.00    -0.449 OA
BRANCH   7   8
ATOM      8  C   UNL     1      17.332 -20.281  -1.135  1.00  0.00    +0.238 C 
BRANCH   8   9
ATOM      9  C   UNL     1      18.756 -20.598  -1.555  1.00  0.00    +0.027 C 
ATOM     10  C   UNL     1      19.462 -21.731  -0.765  1.00  0.00    +0.007 C 
ATOM     11  C   UNL     1      18.959 -21.478  -2.818  1.00  0.00    +0.007 C 
ATOM     12  C   UNL     1      20.157 -22.118  -2.086  1.00  0.00    +0.001 C 
ENDBRANCH   8   9
ENDBRANCH   7   8
ENDBRANCH   2   7
BRANCH   4  13
ATOM     13  C   UNL     1      16.783 -24.362   0.853  1.00  0.00    +0.075 A 
ATOM     14  C   UNL     1      17.614 -25.514   0.592  1.00  0.00    +0.028 A 
ATOM     15  C   UNL     1      17.022 -23.881   2.138  1.00  0.00    +0.108 A 
ATOM     16  C   UNL     1      18.402 -25.860   1.665  1.00  0.00    +0.068 A 
ATOM     17  S   UNL     1      18.165 -24.812   2.983  1.00  0.00    -0.126 S 
BRANCH  15  18
ATOM     18  N   UNL     1      16.424 -22.775   2.720  1.00  0.00    -0.311 N 
ATOM     19  C   UNL     1      16.892 -21.470   2.784  1.00  0.00    +0.285 C 
ATOM     20  O   UNL     1      17.960 -21.068   2.330  1.00  0.00    -0.266 OA
ATOM     21  H   UNL     1      15.506 -22.932   3.149  1.00  0.00    +0.171 HD
BRANCH  19  22
ATOM     22  C   UNL     1      15.942 -20.597   3.479  1.00  0.00    +0.182 A 
ATOM     23  N   UNL     1      15.550 -19.440   2.979  1.00  0.00    -0.231 NA
ATOM     24  S   UNL     1      15.276 -21.029   4.993  1.00  0.00    -0.109 S 
ATOM     25  C   UNL     1      14.657 -18.839   3.850  1.00  0.00    +0.082 A 
ATOM     26  C   UNL     1      14.378 -19.559   5.015  1.00  0.00    +0.055 A 
ATOM     27  C   UNL     1      14.027 -17.593   3.656  1.00  0.00    +0.030 A 
ATOM     28  C   UNL     1      13.492 -19.076   5.991  1.00  0.00    +0.021 A 
ATOM     29  C   UNL     1      13.142 -17.103   4.622  1.00  0.00    +0.002 A 
ATOM     30  C   UNL     1      12.880 -17.837   5.774  1.00  0.00    +0.002 A 
ENDBRANCH  19  22
ENDBRANCH  15  18
ENDBRANCH   4  13
TORSDOF 6
ENDMDL
MODEL 3
REMARK VINA RESULT:    -8.140      1.954      4.394
REMARK INTER + INTRA:         -12.525
REMARK INTER:                 -11.466
REMARK INTRA:                  -1.059
REMARK UNBOUND:                -1.530
REMARK SMILES O=C(NC(=O)c1ccsc1NC(=O)c1nc2ccccc2s1)OCC1CCC1
REMARK SMILES IDX 1 1 2 2 3 3 4 4 5 5 23 7 24 8 25 9 26 10 28 11 27 12 6 13
REMARK SMILES IDX 7 14 10 15 8 16 9 17 11 18 12 19 13 20 14 22 15 23 22 24
REMARK SMILES IDX 16 25 21 26 17 27 20 28 18 29 19 30
REMARK H PARENT 3 6 11 21
ROOT
ATOM      1  O   UNL     1      16.249 -17.721   0.067  1.00  0.00    -0.224 OA
ATOM      2  C   UNL     1      16.097 -18.572   0.925  1.00  0.00    +0.414 C 
ATOM      3  N   UNL     1      15.367 -18.482   2.072  1.00  0.00    -0.257 N 
ATOM      4  C   UNL     1      14.539 -17.436   2.408  1.00  0.00    +0.263 C 
ATOM      5  O   UNL     1      14.335 -16.453   1.704  1.00  0.00    -0.269 OA
ATOM      6  H   UNL     1      15.396 -19.311   2.638  1.00  0.00    +0.176 HD
ENDROOT
BRANCH   2   7
ATOM      7  O   UNL     1      16.679 -19.802   0.902  1.00  0.00    -0.449 OA
BRANCH   7   8
ATOM      8  C   UNL     1      16.870 -20.400  -0.393  1.00  0.00    +0.238 C 
BRANCH   8   9
ATOM      9  C   UNL     1      18.320 -20.828  -0.529  1.00  0.00    +0.027 C 
ATOM     10  C   UNL     1      19.047 -21.197   0.791  1.00  0.00    +0.007 C 
ATOM     11  C   UNL     1      18.605 -22.285  -0.984  1.00  0.00    +0.007 C 
ATOM     12  C   UNL     1      19.803 -22.274  -0.013  1.00  0.00    +0.001 C 
ENDBRANCH   8   9
ENDBRANCH   7   8
ENDBRANCH   2   7
BRANCH   4  13
ATOM     13  C   UNL     1      13.856 -17.585   3.706  1.00  0.00    +0.075 A 
ATOM     14  C   UNL     1      12.893 -16.689   4.303  1.00  0.00    +0.028 A 
ATOM     15  C   UNL     1      14.068 -18.682   4.537  1.00  0.00    +0.108 A 
ATOM     16  C   UNL     1      12.451 -17.121   5.532  1.00  0.00    +0.068 A 
ATOM     17  S   UNL     1      13.171 -18.596   5.977  1.00  0.00    -0.126 S 
BRANCH  15  18
ATOM     18  N   UNL     1      14.907 -19.753   4.276  1.00  0.00    -0.311 N 
ATOM     19  C   UNL     1      15.965 -20.232   5.036  1.00  0.00    +0.285 C 
ATOM     20  O   UNL     1      16.356 -19.758   6.099  1.00  0.00    -0.266 OA
ATOM     21  H   UNL     1      14.715 -20.277   3.415  1.00  0.00    +0.171 HD
BRANCH  19  22
ATOM     22  C   UNL     1      16.586 -21.401   4.408  1.00  0.00    +0.182 A 
ATOM     23  N   UNL     1      16.121 -21.936   3.295  1.00  0.00    -0.231 NA
ATOM     24  S   UNL     1      17.968 -22.149   5.084  1.00  0.00    -0.109 S 
ATOM     25  C   UNL     1      16.905 -23.021   2.941  1.00  0.00    +0.082 A 
ATOM     26  C   UNL     1      17.970 -23.298   3.800  1.00  0.00    +0.055 A 
ATOM     27  C   UNL     1      16.713 -23.843   1.812  1.00  0.00    +0.030 A 
ATOM     28  C   UNL     1      18.851 -24.366   3.570  1.00  0.00    +0.021 A 
ATOM     29  C   UNL     1      17.584 -24.911   1.573  1.00  0.00    +0.002 A 
ATOM     30  C   UNL     1      18.640 -25.167   2.443  1.00  0.00    +0.002 A 
ENDBRANCH  19  22
ENDBRANCH  15  18
ENDBRANCH   4  13
TORSDOF 6
ENDMDL
MODEL 4
REMARK VINA RESULT:    -8.111      2.324      4.485
REMARK INTER + INTRA:         -12.486
REMARK INTER:                 -11.695
REMARK INTRA:                  -0.791
REMARK UNBOUND:                -1.530
REMARK SMILES O=C(NC(=O)c1ccsc1NC(=O)c1nc2ccccc2s1)OCC1CCC1
REMARK SMILES IDX 1 1 2 2 3 3 4 4 5 5 23 7 24 8 25 9 26 10 28 11 27 12 6 13
REMARK SMILES IDX 7 14 10 15 8 16 9 17 11 18 12 19 13 20 14 22 15 23 22 24
REMARK SMILES IDX 16 25 21 26 17 27 20 28 18 29 19 30
REMARK H PARENT 3 6 11 21
ROOT
ATOM      1  O   UNL     1      16.350 -18.201  -0.670  1.00  0.00    -0.224 OA
ATOM      2  C   UNL     1      15.952 -19.065   0.091  1.00  0.00    +0.414 C 
ATOM      3  N   UNL     1      15.335 -18.901   1.295  1.00  0.00    -0.257 N 
ATOM      4  C   UNL     1      14.917 -17.699   1.817  1.00  0.00    +0.263 C 
ATOM      5  O   UNL     1      15.029 -16.616   1.252  1.00  0.00    -0.269 OA
ATOM      6  H   UNL     1      15.105 -19.764   1.754  1.00  0.00    +0.176 HD
ENDROOT
BRANCH   2   7
ATOM      7  O   UNL     1      16.088 -20.402  -0.124  1.00  0.00    -0.449 OA
BRANCH   7   8
ATOM      8  C   UNL     1      15.554 -20.914  -1.358  1.00  0.00    +0.238 C 
BRANCH   8   9
ATOM      9  C   UNL     1      16.613 -21.762  -2.039  1.00  0.00    +0.027 C 
ATOM     10  C   UNL     1      17.951 -21.046  -2.364  1.00  0.00    +0.007 C 
ATOM     11  C   UNL     1      17.449 -22.724  -1.153  1.00  0.00    +0.007 C 
ATOM     12  C   UNL     1      18.655 -22.383  -2.053  1.00  0.00    +0.001 C 
ENDBRANCH   8   9
ENDBRANCH   7   8
ENDBRANCH   2   7
BRANCH   4  13
ATOM     13  C   UNL     1      14.269 -17.793   3.137  1.00  0.00    +0.075 A 
ATOM     14  C   UNL     1      13.163 -17.009   3.635  1.00  0.00    +0.028 A 
ATOM     15  C   UNL     1      14.670 -18.718   4.098  1.00  0.00    +0.108 A 
ATOM     16  C   UNL     1      12.803 -17.348   4.919  1.00  0.00    +0.068 A 
ATOM     17  S   UNL     1      13.771 -18.603   5.534  1.00  0.00    -0.126 S 
BRANCH  15  18
ATOM     18  N   UNL     1      15.685 -19.652   3.958  1.00  0.00    -0.311 N 
ATOM     19  C   UNL     1      15.652 -21.014   4.224  1.00  0.00    +0.285 C 
ATOM     20  O   UNL     1      14.686 -21.637   4.657  1.00  0.00    -0.266 OA
ATOM     21  H   UNL     1      16.577 -19.299   3.595  1.00  0.00    +0.171 HD
BRANCH  19  22
ATOM     22  C   UNL     1      16.940 -21.646   3.926  1.00  0.00    +0.182 A 
ATOM     23  N   UNL     1      17.667 -21.307   2.878  1.00  0.00    -0.231 NA
ATOM     24  S   UNL     1      17.587 -22.871   4.929  1.00  0.00    -0.109 S 
ATOM     25  C   UNL     1      18.824 -22.068   2.853  1.00  0.00    +0.082 A 
ATOM     26  C   UNL     1      18.962 -22.985   3.897  1.00  0.00    +0.055 A 
ATOM     27  C   UNL     1      19.842 -21.989   1.881  1.00  0.00    +0.030 A 
ATOM     28  C   UNL     1      20.083 -23.824   4.004  1.00  0.00    +0.021 A 
ATOM     29  C   UNL     1      20.962 -22.820   1.978  1.00  0.00    +0.002 A 
ATOM     30  C   UNL     1      21.079 -23.726   3.027  1.00  0.00    +0.002 A 
ENDBRANCH  19  22
ENDBRANCH  15  18
ENDBRANCH   4  13
TORSDOF 6
ENDMDL
MODEL 5
REMARK VINA RESULT:    -8.019      3.042      7.515
REMARK INTER + INTRA:         -12.361
REMARK INTER:                 -11.447
REMARK INTRA:                  -0.914
REMARK UNBOUND:                -1.530
REMARK SMILES O=C(NC(=O)c1ccsc1NC(=O)c1nc2ccccc2s1)OCC1CCC1
REMARK SMILES IDX 1 1 2 2 3 3 4 4 5 5 23 7 24 8 25 9 26 10 28 11 27 12 6 13
REMARK SMILES IDX 7 14 10 15 8 16 9 17 11 18 12 19 13 20 14 22 15 23 22 24
REMARK SMILES IDX 16 25 21 26 17 27 20 28 18 29 19 30
REMARK H PARENT 3 6 11 21
ROOT
ATOM      1  O   UNL     1      17.925 -19.618  -2.141  1.00  0.00    -0.224 OA
ATOM      2  C   UNL     1      18.324 -20.757  -2.311  1.00  0.00    +0.414 C 
ATOM      3  N   UNL     1      18.306 -21.791  -1.424  1.00  0.00    -0.257 N 
ATOM      4  C   UNL     1      17.694 -21.772  -0.192  1.00  0.00    +0.263 C 
ATOM      5  O   UNL     1      17.065 -20.821   0.260  1.00  0.00    -0.269 OA
ATOM      6  H   UNL     1      18.701 -22.641  -1.784  1.00  0.00    +0.176 HD
ENDROOT
BRANCH   2   7
ATOM      7  O   UNL     1      18.909 -21.204  -3.455  1.00  0.00    -0.449 OA
BRANCH   7   8
ATOM      8  C   UNL     1      20.138 -21.938  -3.305  1.00  0.00    +0.238 C 
BRANCH   8   9
ATOM      9  C   UNL     1      20.800 -22.073  -4.665  1.00  0.00    +0.027 C 
ATOM     10  C   UNL     1      20.414 -23.330  -5.488  1.00  0.00    +0.007 C 
ATOM     11  C   UNL     1      20.217 -21.240  -5.839  1.00  0.00    +0.007 C 
ATOM     12  C   UNL     1      20.523 -22.447  -6.748  1.00  0.00    +0.001 C 
ENDBRANCH   8   9
ENDBRANCH   7   8
ENDBRANCH   2   7
BRANCH   4  13
ATOM     13  C   UNL     1      17.816 -23.025   0.575  1.00  0.00    +0.075 A 
ATOM     14  C   UNL     1      18.488 -24.240   0.178  1.00  0.00    +0.028 A 
ATOM     15  C   UNL     1      17.275 -23.172   1.850  1.00  0.00    +0.108 A 
ATOM     16  C   UNL     1      18.408 -25.230   1.130  1.00  0.00    +0.068 A 
ATOM     17  S   UNL     1      17.542 -24.717   2.500  1.00  0.00    -0.126 S 
BRANCH  15  18
ATOM     18  N   UNL     1      16.583 -22.203   2.560  1.00  0.00    -0.311 N 
ATOM     19  C   UNL     1      16.916 -21.612   3.771  1.00  0.00    +0.285 C 
ATOM     20  O   UNL     1      17.909 -21.870   4.445  1.00  0.00    -0.266 OA
ATOM     21  H   UNL     1      15.717 -21.861   2.130  1.00  0.00    +0.171 HD
BRANCH  19  22
ATOM     22  C   UNL     1      15.918 -20.617   4.170  1.00  0.00    +0.182 A 
ATOM     23  N   UNL     1      15.531 -19.643   3.368  1.00  0.00    -0.231 NA
ATOM     24  S   UNL     1      15.182 -20.660   5.714  1.00  0.00    -0.109 S 
ATOM     25  C   UNL     1      14.586 -18.862   4.012  1.00  0.00    +0.082 A 
ATOM     26  C   UNL     1      14.261 -19.262   5.310  1.00  0.00    +0.055 A 
ATOM     27  C   UNL     1      13.946 -17.728   3.470  1.00  0.00    +0.030 A 
ATOM     28  C   UNL     1      13.318 -18.568   6.085  1.00  0.00    +0.021 A 
ATOM     29  C   UNL     1      13.005 -17.030   4.234  1.00  0.00    +0.002 A 
ATOM     30  C   UNL     1      12.697 -17.446   5.525  1.00  0.00    +0.002 A 
ENDBRANCH  19  22
ENDBRANCH  15  18
ENDBRANCH   4  13
TORSDOF 6
ENDMDL
MODEL 6
REMARK VINA RESULT:    -7.748      3.338      7.510
REMARK INTER + INTRA:         -11.996
REMARK INTER:                 -10.957
REMARK INTRA:                  -1.039
REMARK UNBOUND:                -1.530
REMARK SMILES O=C(NC(=O)c1ccsc1NC(=O)c1nc2ccccc2s1)OCC1CCC1
REMARK SMILES IDX 1 1 2 2 3 3 4 4 5 5 23 7 24 8 25 9 26 10 28 11 27 12 6 13
REMARK SMILES IDX 7 14 10 15 8 16 9 17 11 18 12 19 13 20 14 22 15 23 22 24
REMARK SMILES IDX 16 25 21 26 17 27 20 28 18 29 19 30
REMARK H PARENT 3 6 11 21
ROOT
ATOM      1  O   UNL     1      17.722 -20.591  -3.048  1.00  0.00    -0.224 OA
ATOM      2  C   UNL     1      18.644 -21.304  -2.692  1.00  0.00    +0.414 C 
ATOM      3  N   UNL     1      18.679 -22.160  -1.632  1.00  0.00    -0.257 N 
ATOM      4  C   UNL     1      17.606 -22.481  -0.833  1.00  0.00    +0.263 C 
ATOM      5  O   UNL     1      16.467 -22.052  -0.988  1.00  0.00    -0.269 OA
ATOM      6  H   UNL     1      19.555 -22.638  -1.526  1.00  0.00    +0.176 HD
ENDROOT
BRANCH   2   7
ATOM      7  O   UNL     1      19.861 -21.349  -3.299  1.00  0.00    -0.449 OA
BRANCH   7   8
ATOM      8  C   UNL     1      20.268 -22.623  -3.832  1.00  0.00    +0.238 C 
BRANCH   8   9
ATOM      9  C   UNL     1      20.210 -22.564  -5.347  1.00  0.00    +0.027 C 
ATOM     10  C   UNL     1      20.254 -21.146  -5.975  1.00  0.00    +0.007 C 
ATOM     11  C   UNL     1      21.518 -22.851  -6.133  1.00  0.00    +0.007 C 
ATOM     12  C   UNL     1      21.069 -21.763  -7.130  1.00  0.00    +0.001 C 
ENDBRANCH   8   9
ENDBRANCH   7   8
ENDBRANCH   2   7
BRANCH   4  13
ATOM     13  C   UNL     1      17.907 -23.438   0.246  1.00  0.00    +0.075 A 
ATOM     14  C   UNL     1      18.621 -24.690   0.142  1.00  0.00    +0.028 A 
ATOM     15  C   UNL     1      17.527 -23.214   1.567  1.00  0.00    +0.108 A 
ATOM     16  C   UNL     1      18.724 -25.349   1.345  1.00  0.00    +0.068 A 
ATOM     17  S   UNL     1      17.981 -24.479   2.604  1.00  0.00    -0.126 S 
BRANCH  15  18
ATOM     18  N   UNL     1      16.848 -22.103   2.043  1.00  0.00    -0.311 N 
ATOM     19  C   UNL     1      17.321 -20.811   2.226  1.00  0.00    +0.285 C 
ATOM     20  O   UNL     1      18.465 -20.427   2.001  1.00  0.00    -0.266 OA
ATOM     21  H   UNL     1      15.860 -22.245   2.278  1.00  0.00    +0.171 HD
BRANCH  19  22
ATOM     22  C   UNL     1      16.270 -19.927   2.738  1.00  0.00    +0.182 A 
ATOM     23  N   UNL     1      15.743 -20.078   3.938  1.00  0.00    -0.231 NA
ATOM     24  S   UNL     1      15.658 -18.632   1.803  1.00  0.00    -0.109 S 
ATOM     25  C   UNL     1      14.779 -19.105   4.146  1.00  0.00    +0.082 A 
ATOM     26  C   UNL     1      14.588 -18.215   3.086  1.00  0.00    +0.055 A 
ATOM     27  C   UNL     1      14.002 -18.950   5.311  1.00  0.00    +0.030 A 
ATOM     28  C   UNL     1      13.646 -17.176   3.152  1.00  0.00    +0.021 A 
ATOM     29  C   UNL     1      13.061 -17.917   5.387  1.00  0.00    +0.002 A 
ATOM     30  C   UNL     1      12.887 -17.043   4.319  1.00  0.00    +0.002 A 
ENDBRANCH  19  22
ENDBRANCH  15  18
ENDBRANCH   4  13
TORSDOF 6
ENDMDL
MODEL 7
REMARK VINA RESULT:    -7.624      2.969      7.082
REMARK INTER + INTRA:         -11.828
REMARK INTER:                 -10.698
REMARK INTRA:                  -1.130
REMARK UNBOUND:                -1.530
REMARK SMILES O=C(NC(=O)c1ccsc1NC(=O)c1nc2ccccc2s1)OCC1CCC1
REMARK SMILES IDX 1 1 2 2 3 3 4 4 5 5 23 7 24 8 25 9 26 10 28 11 27 12 6 13
REMARK SMILES IDX 7 14 10 15 8 16 9 17 11 18 12 19 13 20 14 22 15 23 22 24
REMARK SMILES IDX 16 25 21 26 17 27 20 28 18 29 19 30
REMARK H PARENT 3 6 11 21
ROOT
ATOM      1  O   UNL     1      15.802 -22.292  -2.305  1.00  0.00    -0.224 OA
ATOM      2  C   UNL     1      16.990 -22.311  -2.035  1.00  0.00    +0.414 C 
ATOM      3  N   UNL     1      17.583 -22.769  -0.896  1.00  0.00    -0.257 N 
ATOM      4  C   UNL     1      16.940 -23.432   0.123  1.00  0.00    +0.263 C 
ATOM      5  O   UNL     1      15.747 -23.718   0.128  1.00  0.00    -0.269 OA
ATOM      6  H   UNL     1      18.582 -22.673  -0.892  1.00  0.00    +0.176 HD
ENDROOT
BRANCH   2   7
ATOM      7  O   UNL     1      17.971 -21.831  -2.846  1.00  0.00    -0.449 OA
BRANCH   7   8
ATOM      8  C   UNL     1      19.305 -21.813  -2.304  1.00  0.00    +0.238 C 
BRANCH   8   9
ATOM      9  C   UNL     1      20.286 -22.200  -3.396  1.00  0.00    +0.027 C 
ATOM     10  C   UNL     1      19.928 -23.469  -4.213  1.00  0.00    +0.007 C 
ATOM     11  C   UNL     1      20.213 -21.427  -4.740  1.00  0.00    +0.007 C 
ATOM     12  C   UNL     1      20.541 -22.762  -5.439  1.00  0.00    +0.001 C 
ENDBRANCH   8   9
ENDBRANCH   7   8
ENDBRANCH   2   7
BRANCH   4  13
ATOM     13  C   UNL     1      17.811 -23.827   1.245  1.00  0.00    +0.075 A 
ATOM     14  C   UNL     1      18.772 -24.904   1.279  1.00  0.00    +0.028 A 
ATOM     15  C   UNL     1      17.809 -23.149   2.462  1.00  0.00    +0.108 A 
ATOM     16  C   UNL     1      19.418 -25.006   2.489  1.00  0.00    +0.068 A 
ATOM     17  S   UNL     1      18.891 -23.819   3.586  1.00  0.00    -0.126 S 
BRANCH  15  18
ATOM     18  N   UNL     1      17.032 -22.047   2.781  1.00  0.00    -0.311 N 
ATOM     19  C   UNL     1      17.212 -20.722   2.409  1.00  0.00    +0.285 C 
ATOM     20  O   UNL     1      18.132 -20.290   1.720  1.00  0.00    -0.266 OA
ATOM     21  H   UNL     1      16.203 -22.231   3.356  1.00  0.00    +0.171 HD
BRANCH  19  22
ATOM     22  C   UNL     1      16.151 -19.868   2.948  1.00  0.00    +0.182 A 
ATOM     23  N   UNL     1      15.669 -20.025   4.167  1.00  0.00    -0.231 NA
ATOM     24  S   UNL     1      15.466 -18.602   2.023  1.00  0.00    -0.109 S 
ATOM     25  C   UNL     1      14.681 -19.082   4.398  1.00  0.00    +0.082 A 
ATOM     26  C   UNL     1      14.426 -18.208   3.339  1.00  0.00    +0.055 A 
ATOM     27  C   UNL     1      13.938 -18.941   5.588  1.00  0.00    +0.030 A 
ATOM     28  C   UNL     1      13.453 -17.199   3.427  1.00  0.00    +0.021 A 
ATOM     29  C   UNL     1      12.967 -17.939   5.687  1.00  0.00    +0.002 A 
ATOM     30  C   UNL     1      12.729 -17.080   4.618  1.00  0.00    +0.002 A 
ENDBRANCH  19  22
ENDBRANCH  15  18
ENDBRANCH   4  13
TORSDOF 6
ENDMDL
MODEL 8
REMARK VINA RESULT:    -7.454      2.606      6.454
REMARK INTER + INTRA:         -11.598
REMARK INTER:                 -10.505
REMARK INTRA:                  -1.093
REMARK UNBOUND:                -1.530
REMARK SMILES O=C(NC(=O)c1ccsc1NC(=O)c1nc2ccccc2s1)OCC1CCC1
REMARK SMILES IDX 1 1 2 2 3 3 4 4 5 5 23 7 24 8 25 9 26 10 28 11 27 12 6 13
REMARK SMILES IDX 7 14 10 15 8 16 9 17 11 18 12 19 13 20 14 22 15 23 22 24
REMARK SMILES IDX 16 25 21 26 17 27 20 28 18 29 19 30
REMARK H PARENT 3 6 11 21
ROOT
ATOM      1  O   UNL     1      17.265 -24.891   2.362  1.00  0.00    -0.224 OA
ATOM      2  C   UNL     1      17.942 -23.885   2.251  1.00  0.00    +0.414 C 
ATOM      3  N   UNL     1      17.968 -23.004   1.211  1.00  0.00    -0.257 N 
ATOM      4  C   UNL     1      17.114 -23.021   0.133  1.00  0.00    +0.263 C 
ATOM      5  O   UNL     1      16.199 -23.824  -0.021  1.00  0.00    -0.269 OA
ATOM      6  H   UNL     1      18.617 -22.249   1.336  1.00  0.00    +0.176 HD
ENDROOT
BRANCH   2   7
ATOM      7  O   UNL     1      18.850 -23.462   3.172  1.00  0.00    -0.449 OA
BRANCH   7   8
ATOM      8  C   UNL     1      19.543 -24.486   3.910  1.00  0.00    +0.238 C 
BRANCH   8   9
ATOM      9  C   UNL     1      20.948 -24.629   3.352  1.00  0.00    +0.027 C 
ATOM     10  C   UNL     1      21.494 -23.410   2.563  1.00  0.00    +0.007 C 
ATOM     11  C   UNL     1      22.138 -24.414   4.326  1.00  0.00    +0.007 C 
ATOM     12  C   UNL     1      22.880 -23.744   3.151  1.00  0.00    +0.001 C 
ENDBRANCH   8   9
ENDBRANCH   7   8
ENDBRANCH   2   7
BRANCH   4  13
ATOM     13  C   UNL     1      17.349 -21.953  -0.855  1.00  0.00    +0.075 A 
ATOM     14  C   UNL     1      17.957 -22.077  -2.160  1.00  0.00    +0.028 A 
ATOM     15  C   UNL     1      16.970 -20.633  -0.627  1.00  0.00    +0.108 A 
ATOM     16  C   UNL     1      18.032 -20.878  -2.830  1.00  0.00    +0.068 A 
ATOM     17  S   UNL     1      17.373 -19.604  -1.917  1.00  0.00    -0.126 S 
BRANCH  15  18
ATOM     18  N   UNL     1      16.336 -20.150   0.506  1.00  0.00    -0.311 N 
ATOM     19  C   UNL     1      16.877 -19.889   1.758  1.00  0.00    +0.285 C 
ATOM     20  O   UNL     1      18.048 -20.063   2.083  1.00  0.00    -0.266 OA
ATOM     21  H   UNL     1      15.337 -19.939   0.409  1.00  0.00    +0.171 HD
BRANCH  19  22
ATOM     22  C   UNL     1      15.862 -19.370   2.678  1.00  0.00    +0.182 A 
ATOM     23  N   UNL     1      15.055 -18.377   2.354  1.00  0.00    -0.231 NA
ATOM     24  S   UNL     1      15.657 -20.027   4.244  1.00  0.00    -0.109 S 
ATOM     25  C   UNL     1      14.209 -18.103   3.415  1.00  0.00    +0.082 A 
ATOM     26  C   UNL     1      14.385 -18.904   4.545  1.00  0.00    +0.055 A 
ATOM     27  C   UNL     1      13.213 -17.106   3.439  1.00  0.00    +0.030 A 
ATOM     28  C   UNL     1      13.600 -18.744   5.698  1.00  0.00    +0.021 A 
ATOM     29  C   UNL     1      12.424 -16.938   4.582  1.00  0.00    +0.002 A 
ATOM     30  C   UNL     1      12.618 -17.748   5.697  1.00  0.00    +0.002 A 
ENDBRANCH  19  22
ENDBRANCH  15  18
ENDBRANCH   4  13
TORSDOF 6
ENDMDL
MODEL 9
REMARK VINA RESULT:    -7.399      2.901      6.108
REMARK INTER + INTRA:         -11.524
REMARK INTER:                 -10.428
REMARK INTRA:                  -1.096
REMARK UNBOUND:                -1.530
REMARK SMILES O=C(NC(=O)c1ccsc1NC(=O)c1nc2ccccc2s1)OCC1CCC1
REMARK SMILES IDX 1 1 2 2 3 3 4 4 5 5 23 7 24 8 25 9 26 10 28 11 27 12 6 13
REMARK SMILES IDX 7 14 10 15 8 16 9 17 11 18 12 19 13 20 14 22 15 23 22 24
REMARK SMILES IDX 16 25 21 26 17 27 20 28 18 29 19 30
REMARK H PARENT 3 6 11 21
ROOT
ATOM      1  O   UNL     1      17.278 -21.412   5.709  1.00  0.00    -0.224 OA
ATOM      2  C   UNL     1      16.343 -20.885   5.133  1.00  0.00    +0.414 C 
ATOM      3  N   UNL     1      16.249 -20.563   3.812  1.00  0.00    -0.257 N 
ATOM      4  C   UNL     1      17.161 -20.908   2.842  1.00  0.00    +0.263 C 
ATOM      5  O   UNL     1      18.173 -21.573   3.040  1.00  0.00    -0.269 OA
ATOM      6  H   UNL     1      15.382 -20.122   3.563  1.00  0.00    +0.176 HD
ENDROOT
BRANCH   2   7
ATOM      7  O   UNL     1      15.194 -20.480   5.739  1.00  0.00    -0.449 OA
BRANCH   7   8
ATOM      8  C   UNL     1      14.205 -19.860   4.897  1.00  0.00    +0.238 C 
BRANCH   8   9
ATOM      9  C   UNL     1      14.017 -18.420   5.338  1.00  0.00    +0.027 C 
ATOM     10  C   UNL     1      13.487 -17.441   4.257  1.00  0.00    +0.007 C 
ATOM     11  C   UNL     1      12.738 -18.072   6.147  1.00  0.00    +0.007 C 
ATOM     12  C   UNL     1      12.712 -16.731   5.387  1.00  0.00    +0.001 C 
ENDBRANCH   8   9
ENDBRANCH   7   8
ENDBRANCH   2   7
BRANCH   4  13
ATOM     13  C   UNL     1      16.823 -20.442   1.485  1.00  0.00    +0.075 A 
ATOM     14  C   UNL     1      16.348 -19.135   1.095  1.00  0.00    +0.028 A 
ATOM     15  C   UNL     1      16.950 -21.259   0.365  1.00  0.00    +0.108 A 
ATOM     16  C   UNL     1      16.120 -19.031  -0.258  1.00  0.00    +0.068 A 
ATOM     17  S   UNL     1      16.478 -20.481  -1.070  1.00  0.00    -0.126 S 
BRANCH  15  18
ATOM     18  N   UNL     1      17.403 -22.568   0.356  1.00  0.00    -0.311 N 
ATOM     19  C   UNL     1      18.675 -23.044   0.069  1.00  0.00    +0.285 C 
ATOM     20  O   UNL     1      19.642 -22.358  -0.250  1.00  0.00    -0.266 OA
ATOM     21  H   UNL     1      16.715 -23.285   0.611  1.00  0.00    +0.171 HD
BRANCH  19  22
ATOM     22  C   UNL     1      18.738 -24.503   0.190  1.00  0.00    +0.182 A 
ATOM     23  N   UNL     1      17.704 -25.224   0.583  1.00  0.00    -0.231 NA
ATOM     24  S   UNL     1      20.166 -25.369  -0.176  1.00  0.00    -0.109 S 
ATOM     25  C   UNL     1      18.057 -26.564   0.603  1.00  0.00    +0.082 A 
ATOM     26  C   UNL     1      19.369 -26.845   0.218  1.00  0.00    +0.055 A 
ATOM     27  C   UNL     1      17.214 -27.632   0.972  1.00  0.00    +0.030 A 
ATOM     28  C   UNL     1      19.869 -28.156   0.188  1.00  0.00    +0.021 A 
ATOM     29  C   UNL     1      17.702 -28.943   0.946  1.00  0.00    +0.002 A 
ATOM     30  C   UNL     1      19.013 -29.199   0.559  1.00  0.00    +0.002 A 
ENDBRANCH  19  22
ENDBRANCH  15  18
ENDBRANCH   4  13
TORSDOF 6
ENDMDL
