MODEL 1
REMARK VINA RESULT:    -8.755      0.000      0.000
REMARK INTER + INTRA:         -13.804
REMARK INTER:                 -12.082
REMARK INTRA:                  -1.722
REMARK UNBOUND:                -1.722
REMARK SMILES CC1(c2ccc(S(N)(=O)=O)cc2)NC(=O)N(CC(=O)c2cccc(C(F)(F)F)c2)C1=O
REMARK SMILES IDX 1 1 2 2 13 3 14 4 15 5 16 6 30 7 31 8 3 10 4 11 12 12 5 13
REMARK SMILES IDX 11 14 6 15 7 16 9 17 10 18 8 19 17 22 18 23 19 24 20 25
REMARK SMILES IDX 21 26 29 27 22 28 24 29 23 30 25 31 26 32 27 33 28 34
REMARK H PARENT 13 9 8 20 8 21
ROOT
ATOM      1  C   UNL     1      17.030 -18.188  -1.032  1.00  0.00    +0.051 C 
ATOM      2  C   UNL     1      16.858 -19.356  -0.054  1.00  0.00    +0.144 C 
ATOM      3  N   UNL     1      18.156 -19.950   0.203  1.00  0.00    -0.319 N 
ATOM      4  C   UNL     1      18.254 -21.232  -0.281  1.00  0.00    +0.325 C 
ATOM      5  O   UNL     1      19.226 -21.951  -0.128  1.00  0.00    -0.248 OA
ATOM      6  N   UNL     1      17.099 -21.544  -0.927  1.00  0.00    -0.254 N 
ATOM      7  C   UNL     1      16.193 -20.522  -0.824  1.00  0.00    +0.261 C 
ATOM      8  O   UNL     1      15.058 -20.528  -1.282  1.00  0.00    -0.271 OA
ATOM      9  H   UNL     1      18.861 -19.568   0.819  1.00  0.00    +0.166 HD
ENDROOT
BRANCH   2  10
ATOM     10  C   UNL     1      16.135 -19.045   1.256  1.00  0.00    -0.013 A 
ATOM     11  C   UNL     1      15.156 -18.039   1.354  1.00  0.00    +0.008 A 
ATOM     12  C   UNL     1      16.440 -19.778   2.423  1.00  0.00    +0.008 A 
ATOM     13  C   UNL     1      14.503 -17.781   2.564  1.00  0.00    +0.022 A 
ATOM     14  C   UNL     1      15.794 -19.525   3.635  1.00  0.00    +0.022 A 
ATOM     15  C   UNL     1      14.818 -18.534   3.695  1.00  0.00    +0.082 A 
BRANCH  15  16
ATOM     16  S   UNL     1      13.986 -18.208   5.225  1.00  0.00    +0.238 S 
ATOM     17  O   UNL     1      13.459 -19.451   5.735  1.00  0.00    -0.207 OA
ATOM     18  O   UNL     1      13.171 -17.027   5.062  1.00  0.00    -0.207 OA
BRANCH  16  19
ATOM     19  N   UNL     1      15.271 -17.746   6.212  1.00  0.00    -0.225 NA
ATOM     20  H   UNL     1      15.474 -18.507   6.863  1.00  0.00    +0.137 HD
ATOM     21  H   UNL     1      15.107 -16.866   6.699  1.00  0.00    +0.137 HD
ENDBRANCH  16  19
ENDBRANCH  15  16
ENDBRANCH   2  10
BRANCH   6  22
ATOM     22  C   UNL     1      16.806 -22.846  -1.479  1.00  0.00    +0.211 C 
BRANCH  22  23
ATOM     23  C   UNL     1      16.031 -23.669  -0.453  1.00  0.00    +0.182 C 
ATOM     24  O   UNL     1      14.829 -23.915  -0.566  1.00  0.00    -0.292 OA
BRANCH  23  25
ATOM     25  C   UNL     1      16.769 -24.208   0.730  1.00  0.00    +0.020 A 
ATOM     26  C   UNL     1      17.345 -25.484   0.737  1.00  0.00    +0.012 A 
ATOM     27  C   UNL     1      16.877 -23.400   1.872  1.00  0.00    +0.025 A 
ATOM     28  C   UNL     1      18.019 -25.943   1.873  1.00  0.00    +0.001 A 
ATOM     29  C   UNL     1      17.560 -23.850   3.015  1.00  0.00    +0.056 A 
ATOM     30  C   UNL     1      18.123 -25.134   3.004  1.00  0.00    +0.013 A 
BRANCH  29  31
ATOM     31  C   UNL     1      17.647 -22.977   4.243  1.00  0.00    +0.416 C 
ATOM     32  F   UNL     1      18.257 -23.594   5.293  1.00  0.00    -0.166 F 
ATOM     33  F   UNL     1      16.429 -22.577   4.704  1.00  0.00    -0.166 F 
ATOM     34  F   UNL     1      18.354 -21.837   4.015  1.00  0.00    -0.166 F 
ENDBRANCH  29  31
ENDBRANCH  23  25
ENDBRANCH  22  23
ENDBRANCH   6  22
TORSDOF 7
ENDMDL
MODEL 2
REMARK VINA RESULT:    -8.735      2.515      4.638
REMARK INTER + INTRA:         -13.777
REMARK INTER:                 -11.570
REMARK INTRA:                  -2.206
REMARK UNBOUND:                -1.722
REMARK SMILES CC1(c2ccc(S(N)(=O)=O)cc2)NC(=O)N(CC(=O)c2cccc(C(F)(F)F)c2)C1=O
REMARK SMILES IDX 1 1 2 2 13 3 14 4 15 5 16 6 30 7 31 8 3 10 4 11 12 12 5 13
REMARK SMILES IDX 11 14 6 15 7 16 9 17 10 18 8 19 17 22 18 23 19 24 20 25
REMARK SMILES IDX 21 26 29 27 22 28 24 29 23 30 25 31 26 32 27 33 28 34
REMARK H PARENT 13 9 8 20 8 21
ROOT
ATOM      1  C   UNL     1      19.604 -23.355   4.694  1.00  0.00    +0.051 C 
ATOM      2  C   UNL     1      18.378 -23.064   3.820  1.00  0.00    +0.144 C 
ATOM      3  N   UNL     1      17.685 -24.309   3.552  1.00  0.00    -0.319 N 
ATOM      4  C   UNL     1      17.726 -24.659   2.225  1.00  0.00    +0.325 C 
ATOM      5  O   UNL     1      17.159 -25.630   1.753  1.00  0.00    -0.248 OA
ATOM      6  N   UNL     1      18.477 -23.745   1.555  1.00  0.00    -0.254 N 
ATOM      7  C   UNL     1      18.883 -22.742   2.393  1.00  0.00    +0.261 C 
ATOM      8  O   UNL     1      19.548 -21.767   2.067  1.00  0.00    -0.271 OA
ATOM      9  H   UNL     1      17.078 -24.790   4.202  1.00  0.00    +0.166 HD
ENDROOT
BRANCH   2  10
ATOM     10  C   UNL     1      17.410 -22.003   4.341  1.00  0.00    -0.013 A 
ATOM     11  C   UNL     1      17.674 -21.245   5.496  1.00  0.00    +0.008 A 
ATOM     12  C   UNL     1      16.200 -21.756   3.657  1.00  0.00    +0.008 A 
ATOM     13  C   UNL     1      16.774 -20.274   5.946  1.00  0.00    +0.022 A 
ATOM     14  C   UNL     1      15.294 -20.789   4.102  1.00  0.00    +0.022 A 
ATOM     15  C   UNL     1      15.594 -20.044   5.239  1.00  0.00    +0.082 A 
BRANCH  15  16
ATOM     16  S   UNL     1      14.456 -18.810   5.809  1.00  0.00    +0.238 S 
ATOM     17  O   UNL     1      15.067 -18.093   6.903  1.00  0.00    -0.207 OA
ATOM     18  O   UNL     1      13.144 -19.405   5.906  1.00  0.00    -0.207 OA
BRANCH  16  19
ATOM     19  N   UNL     1      14.395 -17.775   4.481  1.00  0.00    -0.225 NA
ATOM     20  H   UNL     1      14.985 -18.158   3.739  1.00  0.00    +0.137 HD
ATOM     21  H   UNL     1      14.650 -16.815   4.709  1.00  0.00    +0.137 HD
ENDBRANCH  16  19
ENDBRANCH  15  16
ENDBRANCH   2  10
BRANCH   6  22
ATOM     22  C   UNL     1      18.658 -23.740   0.122  1.00  0.00    +0.211 C 
BRANCH  22  23
ATOM     23  C   UNL     1      17.443 -23.097  -0.541  1.00  0.00    +0.182 C 
ATOM     24  O   UNL     1      16.467 -23.748  -0.918  1.00  0.00    -0.292 OA
BRANCH  23  25
ATOM     25  C   UNL     1      17.435 -21.614  -0.726  1.00  0.00    +0.020 A 
ATOM     26  C   UNL     1      18.025 -20.993  -1.834  1.00  0.00    +0.012 A 
ATOM     27  C   UNL     1      16.818 -20.822   0.255  1.00  0.00    +0.025 A 
ATOM     28  C   UNL     1      17.996 -19.601  -1.956  1.00  0.00    +0.001 A 
ATOM     29  C   UNL     1      16.777 -19.423   0.136  1.00  0.00    +0.056 A 
ATOM     30  C   UNL     1      17.379 -18.821  -0.978  1.00  0.00    +0.013 A 
BRANCH  29  31
ATOM     31  C   UNL     1      16.129 -18.586   1.212  1.00  0.00    +0.416 C 
ATOM     32  F   UNL     1      16.767 -18.674   2.412  1.00  0.00    -0.166 F 
ATOM     33  F   UNL     1      14.834 -18.933   1.454  1.00  0.00    -0.166 F 
ATOM     34  F   UNL     1      16.108 -17.263   0.893  1.00  0.00    -0.166 F 
ENDBRANCH  29  31
ENDBRANCH  23  25
ENDBRANCH  22  23
ENDBRANCH   6  22
TORSDOF 7
ENDMDL
MODEL 3
REMARK VINA RESULT:    -8.728      1.403      1.982
REMARK INTER + INTRA:         -13.767
REMARK INTER:                 -11.844
REMARK INTRA:                  -1.922
REMARK UNBOUND:                -1.722
REMARK SMILES CC1(c2ccc(S(N)(=O)=O)cc2)NC(=O)N(CC(=O)c2cccc(C(F)(F)F)c2)C1=O
REMARK SMILES IDX 1 1 2 2 13 3 14 4 15 5 16 6 30 7 31 8 3 10 4 11 12 12 5 13
REMARK SMILES IDX 11 14 6 15 7 16 9 17 10 18 8 19 17 22 18 23 19 24 20 25
REMARK SMILES IDX 21 26 29 27 22 28 24 29 23 30 25 31 26 32 27 33 28 34
REMARK H PARENT 13 9 8 20 8 21
ROOT
ATOM      1  C   UNL     1      17.169 -18.283  -1.002  1.00  0.00    +0.051 C 
ATOM      2  C   UNL     1      16.918 -19.235   0.173  1.00  0.00    +0.144 C 
ATOM      3  N   UNL     1      18.194 -19.629   0.739  1.00  0.00    -0.319 N 
ATOM      4  C   UNL     1      18.456 -20.967   0.568  1.00  0.00    +0.325 C 
ATOM      5  O   UNL     1      19.436 -21.537   1.015  1.00  0.00    -0.248 OA
ATOM      6  N   UNL     1      17.445 -21.520  -0.155  1.00  0.00    -0.254 N 
ATOM      7  C   UNL     1      16.468 -20.596  -0.411  1.00  0.00    +0.261 C 
ATOM      8  O   UNL     1      15.426 -20.810  -1.016  1.00  0.00    -0.271 OA
ATOM      9  H   UNL     1      18.762 -19.060   1.352  1.00  0.00    +0.166 HD
ENDROOT
BRANCH   2  10
ATOM     10  C   UNL     1      15.972 -18.736   1.263  1.00  0.00    -0.013 A 
ATOM     11  C   UNL     1      15.820 -19.403   2.492  1.00  0.00    +0.008 A 
ATOM     12  C   UNL     1      15.210 -17.565   1.055  1.00  0.00    +0.008 A 
ATOM     13  C   UNL     1      14.952 -18.919   3.476  1.00  0.00    +0.022 A 
ATOM     14  C   UNL     1      14.339 -17.077   2.032  1.00  0.00    +0.022 A 
ATOM     15  C   UNL     1      14.225 -17.751   3.244  1.00  0.00    +0.082 A 
BRANCH  15  16
ATOM     16  S   UNL     1      13.130 -17.137   4.494  1.00  0.00    +0.238 S 
ATOM     17  O   UNL     1      11.907 -16.704   3.861  1.00  0.00    -0.207 OA
ATOM     18  O   UNL     1      13.883 -16.292   5.390  1.00  0.00    -0.207 OA
BRANCH  16  19
ATOM     19  N   UNL     1      12.794 -18.542   5.362  1.00  0.00    -0.225 NA
ATOM     20  H   UNL     1      12.425 -18.280   6.279  1.00  0.00    +0.137 HD
ATOM     21  H   UNL     1      13.596 -19.165   5.442  1.00  0.00    +0.137 HD
ENDBRANCH  16  19
ENDBRANCH  15  16
ENDBRANCH   2  10
BRANCH   6  22
ATOM     22  C   UNL     1      17.335 -22.931  -0.444  1.00  0.00    +0.211 C 
BRANCH  22  23
ATOM     23  C   UNL     1      16.501 -23.607   0.641  1.00  0.00    +0.182 C 
ATOM     24  O   UNL     1      15.429 -24.170   0.405  1.00  0.00    -0.292 OA
BRANCH  23  25
ATOM     25  C   UNL     1      17.014 -23.595   2.044  1.00  0.00    +0.020 A 
ATOM     26  C   UNL     1      18.133 -24.338   2.440  1.00  0.00    +0.012 A 
ATOM     27  C   UNL     1      16.339 -22.813   2.994  1.00  0.00    +0.025 A 
ATOM     28  C   UNL     1      18.568 -24.296   3.768  1.00  0.00    +0.001 A 
ATOM     29  C   UNL     1      16.775 -22.759   4.329  1.00  0.00    +0.056 A 
ATOM     30  C   UNL     1      17.894 -23.515   4.706  1.00  0.00    +0.013 A 
BRANCH  29  31
ATOM     31  C   UNL     1      16.024 -21.930   5.343  1.00  0.00    +0.416 C 
ATOM     32  F   UNL     1      14.750 -21.641   4.956  1.00  0.00    -0.166 F 
ATOM     33  F   UNL     1      16.616 -20.730   5.598  1.00  0.00    -0.166 F 
ATOM     34  F   UNL     1      15.918 -22.559   6.545  1.00  0.00    -0.166 F 
ENDBRANCH  29  31
ENDBRANCH  23  25
ENDBRANCH  22  23
ENDBRANCH   6  22
TORSDOF 7
ENDMDL
MODEL 4
REMARK VINA RESULT:    -8.671      4.413      7.790
REMARK INTER + INTRA:         -13.688
REMARK INTER:                 -12.636
REMARK INTRA:                  -1.052
REMARK UNBOUND:                -1.722
REMARK SMILES CC1(c2ccc(S(N)(=O)=O)cc2)NC(=O)N(CC(=O)c2cccc(C(F)(F)F)c2)C1=O
REMARK SMILES IDX 1 1 2 2 13 3 14 4 15 5 16 6 30 7 31 8 3 10 4 11 12 12 5 13
REMARK SMILES IDX 11 14 6 15 7 16 9 17 10 18 8 19 17 22 18 23 19 24 20 25
REMARK SMILES IDX 21 26 29 27 22 28 24 29 23 30 25 31 26 32 27 33 28 34
REMARK H PARENT 13 9 8 20 8 21
ROOT
ATOM      1  C   UNL     1      16.237 -21.550  -2.435  1.00  0.00    +0.051 C 
ATOM      2  C   UNL     1      17.466 -21.778  -1.547  1.00  0.00    +0.144 C 
ATOM      3  N   UNL     1      17.135 -22.752  -0.525  1.00  0.00    -0.319 N 
ATOM      4  C   UNL     1      17.143 -22.212   0.738  1.00  0.00    +0.325 C 
ATOM      5  O   UNL     1      16.958 -22.853   1.759  1.00  0.00    -0.248 OA
ATOM      6  N   UNL     1      17.402 -20.881   0.643  1.00  0.00    -0.254 N 
ATOM      7  C   UNL     1      17.644 -20.525  -0.656  1.00  0.00    +0.261 C 
ATOM      8  O   UNL     1      17.932 -19.400  -1.045  1.00  0.00    -0.271 OA
ATOM      9  H   UNL     1      17.081 -23.751  -0.667  1.00  0.00    +0.166 HD
ENDROOT
BRANCH   2  10
ATOM     10  C   UNL     1      18.760 -22.161  -2.264  1.00  0.00    -0.013 A 
ATOM     11  C   UNL     1      19.690 -23.058  -1.709  1.00  0.00    +0.008 A 
ATOM     12  C   UNL     1      19.056 -21.611  -3.530  1.00  0.00    +0.008 A 
ATOM     13  C   UNL     1      20.863 -23.399  -2.391  1.00  0.00    +0.022 A 
ATOM     14  C   UNL     1      20.226 -21.944  -4.216  1.00  0.00    +0.022 A 
ATOM     15  C   UNL     1      21.118 -22.848  -3.646  1.00  0.00    +0.082 A 
BRANCH  15  16
ATOM     16  S   UNL     1      22.602 -23.285  -4.511  1.00  0.00    +0.238 S 
ATOM     17  O   UNL     1      23.729 -23.037  -3.643  1.00  0.00    -0.207 OA
ATOM     18  O   UNL     1      22.525 -22.757  -5.853  1.00  0.00    -0.207 OA
BRANCH  16  19
ATOM     19  N   UNL     1      22.422 -24.953  -4.662  1.00  0.00    -0.225 NA
ATOM     20  H   UNL     1      21.450 -25.157  -4.905  1.00  0.00    +0.137 HD
ATOM     21  H   UNL     1      22.719 -25.465  -3.832  1.00  0.00    +0.137 HD
ENDBRANCH  16  19
ENDBRANCH  15  16
ENDBRANCH   2  10
BRANCH   6  22
ATOM     22  C   UNL     1      17.583 -20.008   1.779  1.00  0.00    +0.211 C 
BRANCH  22  23
ATOM     23  C   UNL     1      16.269 -19.296   2.087  1.00  0.00    +0.182 C 
ATOM     24  O   UNL     1      15.750 -18.489   1.313  1.00  0.00    -0.292 OA
BRANCH  23  25
ATOM     25  C   UNL     1      15.578 -19.603   3.377  1.00  0.00    +0.020 A 
ATOM     26  C   UNL     1      15.822 -20.779   4.097  1.00  0.00    +0.012 A 
ATOM     27  C   UNL     1      14.648 -18.676   3.872  1.00  0.00    +0.025 A 
ATOM     28  C   UNL     1      15.145 -21.021   5.295  1.00  0.00    +0.001 A 
ATOM     29  C   UNL     1      13.968 -18.908   5.080  1.00  0.00    +0.056 A 
ATOM     30  C   UNL     1      14.223 -20.094   5.782  1.00  0.00    +0.013 A 
BRANCH  29  31
ATOM     31  C   UNL     1      12.954 -17.911   5.587  1.00  0.00    +0.416 C 
ATOM     32  F   UNL     1      11.921 -17.715   4.721  1.00  0.00    -0.166 F 
ATOM     33  F   UNL     1      13.485 -16.677   5.817  1.00  0.00    -0.166 F 
ATOM     34  F   UNL     1      12.390 -18.302   6.762  1.00  0.00    -0.166 F 
ENDBRANCH  29  31
ENDBRANCH  23  25
ENDBRANCH  22  23
ENDBRANCH   6  22
TORSDOF 7
ENDMDL
MODEL 5
REMARK VINA RESULT:    -8.387      3.886      7.436
REMARK INTER + INTRA:         -13.297
REMARK INTER:                 -12.156
REMARK INTRA:                  -1.141
REMARK UNBOUND:                -1.722
REMARK SMILES CC1(c2ccc(S(N)(=O)=O)cc2)NC(=O)N(CC(=O)c2cccc(C(F)(F)F)c2)C1=O
REMARK SMILES IDX 1 1 2 2 13 3 14 4 15 5 16 6 30 7 31 8 3 10 4 11 12 12 5 13
REMARK SMILES IDX 11 14 6 15 7 16 9 17 10 18 8 19 17 22 18 23 19 24 20 25
REMARK SMILES IDX 21 26 29 27 22 28 24 29 23 30 25 31 26 32 27 33 28 34
REMARK H PARENT 13 9 8 20 8 21
ROOT
ATOM      1  C   UNL     1      16.096 -21.636  -2.397  1.00  0.00    +0.051 C 
ATOM      2  C   UNL     1      17.278 -21.845  -1.443  1.00  0.00    +0.144 C 
ATOM      3  N   UNL     1      16.859 -22.710  -0.358  1.00  0.00    -0.319 N 
ATOM      4  C   UNL     1      16.846 -22.065   0.855  1.00  0.00    +0.325 C 
ATOM      5  O   UNL     1      16.590 -22.606   1.917  1.00  0.00    -0.248 OA
ATOM      6  N   UNL     1      17.177 -20.761   0.659  1.00  0.00    -0.254 N 
ATOM      7  C   UNL     1      17.486 -20.530  -0.654  1.00  0.00    +0.261 C 
ATOM      8  O   UNL     1      17.847 -19.458  -1.124  1.00  0.00    -0.271 OA
ATOM      9  H   UNL     1      16.758 -23.715  -0.417  1.00  0.00    +0.166 HD
ENDROOT
BRANCH   2  10
ATOM     10  C   UNL     1      18.576 -22.351  -2.070  1.00  0.00    -0.013 A 
ATOM     11  C   UNL     1      19.419 -23.269  -1.418  1.00  0.00    +0.008 A 
ATOM     12  C   UNL     1      18.967 -21.897  -3.349  1.00  0.00    +0.008 A 
ATOM     13  C   UNL     1      20.598 -23.724  -2.019  1.00  0.00    +0.022 A 
ATOM     14  C   UNL     1      20.144 -22.344  -3.954  1.00  0.00    +0.022 A 
ATOM     15  C   UNL     1      20.947 -23.266  -3.289  1.00  0.00    +0.082 A 
BRANCH  15  16
ATOM     16  S   UNL     1      22.439 -23.845  -4.050  1.00  0.00    +0.238 S 
ATOM     17  O   UNL     1      22.500 -25.281  -3.909  1.00  0.00    -0.207 OA
ATOM     18  O   UNL     1      23.524 -22.979  -3.653  1.00  0.00    -0.207 OA
BRANCH  16  19
ATOM     19  N   UNL     1      22.143 -23.496  -5.672  1.00  0.00    -0.225 NA
ATOM     20  H   UNL     1      21.697 -24.307  -6.105  1.00  0.00    +0.137 HD
ATOM     21  H   UNL     1      22.979 -23.209  -6.179  1.00  0.00    +0.137 HD
ENDBRANCH  16  19
ENDBRANCH  15  16
ENDBRANCH   2  10
BRANCH   6  22
ATOM     22  C   UNL     1      17.360 -19.803   1.725  1.00  0.00    +0.211 C 
BRANCH  22  23
ATOM     23  C   UNL     1      16.058 -19.040   1.950  1.00  0.00    +0.182 C 
ATOM     24  O   UNL     1      15.544 -18.329   1.084  1.00  0.00    -0.292 OA
BRANCH  23  25
ATOM     25  C   UNL     1      15.375 -19.173   3.273  1.00  0.00    +0.020 A 
ATOM     26  C   UNL     1      14.369 -18.294   3.690  1.00  0.00    +0.012 A 
ATOM     27  C   UNL     1      15.769 -20.218   4.124  1.00  0.00    +0.025 A 
ATOM     28  C   UNL     1      13.767 -18.460   4.941  1.00  0.00    +0.001 A 
ATOM     29  C   UNL     1      15.164 -20.396   5.379  1.00  0.00    +0.056 A 
ATOM     30  C   UNL     1      14.163 -19.501   5.780  1.00  0.00    +0.013 A 
BRANCH  29  31
ATOM     31  C   UNL     1      15.616 -21.511   6.291  1.00  0.00    +0.416 C 
ATOM     32  F   UNL     1      16.487 -22.369   5.692  1.00  0.00    -0.166 F 
ATOM     33  F   UNL     1      14.588 -22.283   6.744  1.00  0.00    -0.166 F 
ATOM     34  F   UNL     1      16.250 -21.044   7.401  1.00  0.00    -0.166 F 
ENDBRANCH  29  31
ENDBRANCH  23  25
ENDBRANCH  22  23
ENDBRANCH   6  22
TORSDOF 7
ENDMDL
MODEL 6
REMARK VINA RESULT:    -8.368      4.222      7.529
REMARK INTER + INTRA:         -13.270
REMARK INTER:                 -12.316
REMARK INTRA:                  -0.954
REMARK UNBOUND:                -1.722
REMARK SMILES CC1(c2ccc(S(N)(=O)=O)cc2)NC(=O)N(CC(=O)c2cccc(C(F)(F)F)c2)C1=O
REMARK SMILES IDX 1 1 2 2 13 3 14 4 15 5 16 6 30 7 31 8 3 10 4 11 12 12 5 13
REMARK SMILES IDX 11 14 6 15 7 16 9 17 10 18 8 19 17 22 18 23 19 24 20 25
REMARK SMILES IDX 21 26 29 27 22 28 24 29 23 30 25 31 26 32 27 33 28 34
REMARK H PARENT 13 9 8 20 8 21
ROOT
ATOM      1  C   UNL     1      15.663 -22.716  -0.865  1.00  0.00    +0.051 C 
ATOM      2  C   UNL     1      17.050 -22.699  -0.212  1.00  0.00    +0.144 C 
ATOM      3  N   UNL     1      17.195 -23.883   0.613  1.00  0.00    -0.319 N 
ATOM      4  C   UNL     1      17.288 -23.585   1.950  1.00  0.00    +0.325 C 
ATOM      5  O   UNL     1      17.479 -24.411   2.826  1.00  0.00    -0.248 OA
ATOM      6  N   UNL     1      17.147 -22.242   2.109  1.00  0.00    -0.254 N 
ATOM      7  C   UNL     1      17.036 -21.618   0.896  1.00  0.00    +0.261 C 
ATOM      8  O   UNL     1      16.926 -20.411   0.722  1.00  0.00    -0.271 OA
ATOM      9  H   UNL     1      17.393 -24.813   0.269  1.00  0.00    +0.166 HD
ENDROOT
BRANCH   2  10
ATOM     10  C   UNL     1      18.242 -22.543  -1.154  1.00  0.00    -0.013 A 
ATOM     11  C   UNL     1      18.122 -21.966  -2.431  1.00  0.00    +0.008 A 
ATOM     12  C   UNL     1      19.521 -22.986  -0.753  1.00  0.00    +0.008 A 
ATOM     13  C   UNL     1      19.233 -21.827  -3.270  1.00  0.00    +0.022 A 
ATOM     14  C   UNL     1      20.635 -22.853  -1.587  1.00  0.00    +0.022 A 
ATOM     15  C   UNL     1      20.485 -22.262  -2.838  1.00  0.00    +0.082 A 
BRANCH  15  16
ATOM     16  S   UNL     1      21.891 -22.082  -3.901  1.00  0.00    +0.238 S 
ATOM     17  O   UNL     1      21.478 -22.348  -5.259  1.00  0.00    -0.207 OA
ATOM     18  O   UNL     1      23.018 -22.744  -3.288  1.00  0.00    -0.207 OA
BRANCH  16  19
ATOM     19  N   UNL     1      22.200 -20.431  -3.767  1.00  0.00    -0.225 NA
ATOM     20  H   UNL     1      23.160 -20.252  -4.069  1.00  0.00    +0.137 HD
ATOM     21  H   UNL     1      22.023 -20.064  -2.833  1.00  0.00    +0.137 HD
ENDBRANCH  16  19
ENDBRANCH  15  16
ENDBRANCH   2  10
BRANCH   6  22
ATOM     22  C   UNL     1      17.288 -21.556   3.373  1.00  0.00    +0.211 C 
BRANCH  22  23
ATOM     23  C   UNL     1      15.920 -21.433   4.039  1.00  0.00    +0.182 C 
ATOM     24  O   UNL     1      15.058 -22.310   3.956  1.00  0.00    -0.292 OA
BRANCH  23  25
ATOM     25  C   UNL     1      15.624 -20.202   4.833  1.00  0.00    +0.020 A 
ATOM     26  C   UNL     1      16.440 -19.775   5.887  1.00  0.00    +0.012 A 
ATOM     27  C   UNL     1      14.479 -19.458   4.507  1.00  0.00    +0.025 A 
ATOM     28  C   UNL     1      16.114 -18.619   6.602  1.00  0.00    +0.001 A 
ATOM     29  C   UNL     1      14.148 -18.291   5.216  1.00  0.00    +0.056 A 
ATOM     30  C   UNL     1      14.976 -17.884   6.272  1.00  0.00    +0.013 A 
BRANCH  29  31
ATOM     31  C   UNL     1      12.901 -17.516   4.867  1.00  0.00    +0.416 C 
ATOM     32  F   UNL     1      12.863 -17.128   3.562  1.00  0.00    -0.166 F 
ATOM     33  F   UNL     1      12.757 -16.375   5.598  1.00  0.00    -0.166 F 
ATOM     34  F   UNL     1      11.768 -18.240   5.077  1.00  0.00    -0.166 F 
ENDBRANCH  29  31
ENDBRANCH  23  25
ENDBRANCH  22  23
ENDBRANCH   6  22
TORSDOF 7
ENDMDL
MODEL 7
REMARK VINA RESULT:    -8.305      4.303      5.988
REMARK INTER + INTRA:         -13.183
REMARK INTER:                 -12.245
REMARK INTRA:                  -0.938
REMARK UNBOUND:                -1.722
REMARK SMILES CC1(c2ccc(S(N)(=O)=O)cc2)NC(=O)N(CC(=O)c2cccc(C(F)(F)F)c2)C1=O
REMARK SMILES IDX 1 1 2 2 13 3 14 4 15 5 16 6 30 7 31 8 3 10 4 11 12 12 5 13
REMARK SMILES IDX 11 14 6 15 7 16 9 17 10 18 8 19 17 22 18 23 19 24 20 25
REMARK SMILES IDX 21 26 29 27 22 28 24 29 23 30 25 31 26 32 27 33 28 34
REMARK H PARENT 13 9 8 20 8 21
ROOT
ATOM      1  C   UNL     1      18.028 -23.834   3.502  1.00  0.00    +0.051 C 
ATOM      2  C   UNL     1      17.301 -22.758   2.686  1.00  0.00    +0.144 C 
ATOM      3  N   UNL     1      16.396 -23.405   1.755  1.00  0.00    -0.319 N 
ATOM      4  C   UNL     1      16.762 -23.215   0.445  1.00  0.00    +0.325 C 
ATOM      5  O   UNL     1      16.119 -23.610  -0.512  1.00  0.00    -0.248 OA
ATOM      6  N   UNL     1      17.927 -22.515   0.415  1.00  0.00    -0.254 N 
ATOM      7  C   UNL     1      18.316 -22.163   1.680  1.00  0.00    +0.261 C 
ATOM      8  O   UNL     1      19.309 -21.506   1.964  1.00  0.00    -0.271 OA
ATOM      9  H   UNL     1      15.496 -23.799   1.995  1.00  0.00    +0.166 HD
ENDROOT
BRANCH   2  10
ATOM     10  C   UNL     1      16.578 -21.674   3.482  1.00  0.00    -0.013 A 
ATOM     11  C   UNL     1      16.183 -21.860   4.820  1.00  0.00    +0.008 A 
ATOM     12  C   UNL     1      16.282 -20.433   2.879  1.00  0.00    +0.008 A 
ATOM     13  C   UNL     1      15.530 -20.847   5.530  1.00  0.00    +0.022 A 
ATOM     14  C   UNL     1      15.627 -19.417   3.580  1.00  0.00    +0.022 A 
ATOM     15  C   UNL     1      15.266 -19.627   4.908  1.00  0.00    +0.082 A 
BRANCH  15  16
ATOM     16  S   UNL     1      14.441 -18.344   5.810  1.00  0.00    +0.238 S 
ATOM     17  O   UNL     1      15.347 -17.830   6.810  1.00  0.00    -0.207 OA
ATOM     18  O   UNL     1      13.106 -18.791   6.128  1.00  0.00    -0.207 OA
BRANCH  16  19
ATOM     19  N   UNL     1      14.259 -17.164   4.620  1.00  0.00    -0.225 NA
ATOM     20  H   UNL     1      13.481 -17.430   4.012  1.00  0.00    +0.137 HD
ATOM     21  H   UNL     1      15.113 -16.995   4.090  1.00  0.00    +0.137 HD
ENDBRANCH  16  19
ENDBRANCH  15  16
ENDBRANCH   2  10
BRANCH   6  22
ATOM     22  C   UNL     1      18.560 -22.046  -0.796  1.00  0.00    +0.211 C 
BRANCH  22  23
ATOM     23  C   UNL     1      19.669 -23.015  -1.197  1.00  0.00    +0.182 C 
ATOM     24  O   UNL     1      19.795 -24.132  -0.689  1.00  0.00    -0.292 OA
BRANCH  23  25
ATOM     25  C   UNL     1      20.633 -22.594  -2.258  1.00  0.00    +0.020 A 
ATOM     26  C   UNL     1      22.017 -22.575  -2.050  1.00  0.00    +0.012 A 
ATOM     27  C   UNL     1      20.121 -22.197  -3.504  1.00  0.00    +0.025 A 
ATOM     28  C   UNL     1      22.875 -22.165  -3.075  1.00  0.00    +0.001 A 
ATOM     29  C   UNL     1      20.977 -21.791  -4.542  1.00  0.00    +0.056 A 
ATOM     30  C   UNL     1      22.359 -21.774  -4.310  1.00  0.00    +0.013 A 
BRANCH  29  31
ATOM     31  C   UNL     1      20.408 -21.347  -5.868  1.00  0.00    +0.416 C 
ATOM     32  F   UNL     1      21.313 -20.682  -6.639  1.00  0.00    -0.166 F 
ATOM     33  F   UNL     1      19.343 -20.507  -5.739  1.00  0.00    -0.166 F 
ATOM     34  F   UNL     1      19.971 -22.394  -6.618  1.00  0.00    -0.166 F 
ENDBRANCH  29  31
ENDBRANCH  23  25
ENDBRANCH  22  23
ENDBRANCH   6  22
TORSDOF 7
ENDMDL
MODEL 8
REMARK VINA RESULT:    -8.265      2.793      4.731
REMARK INTER + INTRA:         -13.129
REMARK INTER:                 -11.266
REMARK INTRA:                  -1.863
REMARK UNBOUND:                -1.722
REMARK SMILES CC1(c2ccc(S(N)(=O)=O)cc2)NC(=O)N(CC(=O)c2cccc(C(F)(F)F)c2)C1=O
REMARK SMILES IDX 1 1 2 2 13 3 14 4 15 5 16 6 30 7 31 8 3 10 4 11 12 12 5 13
REMARK SMILES IDX 11 14 6 15 7 16 9 17 10 18 8 19 17 22 18 23 19 24 20 25
REMARK SMILES IDX 21 26 29 27 22 28 24 29 23 30 25 31 26 32 27 33 28 34
REMARK H PARENT 13 9 8 20 8 21
ROOT
ATOM      1  C   UNL     1      19.452 -24.254   4.301  1.00  0.00    +0.051 C 
ATOM      2  C   UNL     1      18.519 -23.713   3.211  1.00  0.00    +0.144 C 
ATOM      3  N   UNL     1      17.766 -24.817   2.646  1.00  0.00    -0.319 N 
ATOM      4  C   UNL     1      18.085 -25.053   1.331  1.00  0.00    +0.325 C 
ATOM      5  O   UNL     1      17.536 -25.887   0.632  1.00  0.00    -0.248 OA
ATOM      6  N   UNL     1      19.081 -24.204   0.964  1.00  0.00    -0.254 N 
ATOM      7  C   UNL     1      19.389 -23.346   1.985  1.00  0.00    +0.261 C 
ATOM      8  O   UNL     1      20.226 -22.453   1.938  1.00  0.00    -0.271 OA
ATOM      9  H   UNL     1      16.967 -25.260   3.079  1.00  0.00    +0.166 HD
ENDROOT
BRANCH   2  10
ATOM     10  C   UNL     1      17.588 -22.573   3.619  1.00  0.00    -0.013 A 
ATOM     11  C   UNL     1      17.131 -21.610   2.700  1.00  0.00    +0.008 A 
ATOM     12  C   UNL     1      17.157 -22.457   4.958  1.00  0.00    +0.008 A 
ATOM     13  C   UNL     1      16.271 -20.581   3.098  1.00  0.00    +0.022 A 
ATOM     14  C   UNL     1      16.301 -21.430   5.364  1.00  0.00    +0.022 A 
ATOM     15  C   UNL     1      15.853 -20.504   4.426  1.00  0.00    +0.082 A 
BRANCH  15  16
ATOM     16  S   UNL     1      14.761 -19.201   4.928  1.00  0.00    +0.238 S 
ATOM     17  O   UNL     1      13.742 -19.760   5.785  1.00  0.00    -0.207 OA
ATOM     18  O   UNL     1      14.447 -18.394   3.772  1.00  0.00    -0.207 OA
BRANCH  16  19
ATOM     19  N   UNL     1      15.782 -18.260   5.882  1.00  0.00    -0.225 NA
ATOM     20  H   UNL     1      15.403 -18.224   6.830  1.00  0.00    +0.137 HD
ATOM     21  H   UNL     1      15.938 -17.327   5.502  1.00  0.00    +0.137 HD
ENDBRANCH  16  19
ENDBRANCH  15  16
ENDBRANCH   2  10
BRANCH   6  22
ATOM     22  C   UNL     1      19.603 -24.100  -0.379  1.00  0.00    +0.211 C 
BRANCH  22  23
ATOM     23  C   UNL     1      19.361 -22.690  -0.910  1.00  0.00    +0.182 C 
ATOM     24  O   UNL     1      20.278 -21.941  -1.255  1.00  0.00    -0.292 OA
BRANCH  23  25
ATOM     25  C   UNL     1      17.952 -22.206  -1.027  1.00  0.00    +0.020 A 
ATOM     26  C   UNL     1      16.928 -22.998  -1.559  1.00  0.00    +0.012 A 
ATOM     27  C   UNL     1      17.656 -20.904  -0.592  1.00  0.00    +0.025 A 
ATOM     28  C   UNL     1      15.628 -22.494  -1.652  1.00  0.00    +0.001 A 
ATOM     29  C   UNL     1      16.350 -20.392  -0.675  1.00  0.00    +0.056 A 
ATOM     30  C   UNL     1      15.341 -21.201  -1.216  1.00  0.00    +0.013 A 
BRANCH  29  31
ATOM     31  C   UNL     1      16.054 -18.983  -0.223  1.00  0.00    +0.416 C 
ATOM     32  F   UNL     1      17.122 -18.377   0.366  1.00  0.00    -0.166 F 
ATOM     33  F   UNL     1      15.041 -18.913   0.685  1.00  0.00    -0.166 F 
ATOM     34  F   UNL     1      15.688 -18.177  -1.257  1.00  0.00    -0.166 F 
ENDBRANCH  29  31
ENDBRANCH  23  25
ENDBRANCH  22  23
ENDBRANCH   6  22
TORSDOF 7
ENDMDL
MODEL 9
REMARK VINA RESULT:    -8.255      4.261      7.589
REMARK INTER + INTRA:         -13.114
REMARK INTER:                 -12.219
REMARK INTRA:                  -0.895
REMARK UNBOUND:                -1.722
REMARK SMILES CC1(c2ccc(S(N)(=O)=O)cc2)NC(=O)N(CC(=O)c2cccc(C(F)(F)F)c2)C1=O
REMARK SMILES IDX 1 1 2 2 13 3 14 4 15 5 16 6 30 7 31 8 3 10 4 11 12 12 5 13
REMARK SMILES IDX 11 14 6 15 7 16 9 17 10 18 8 19 17 22 18 23 19 24 20 25
REMARK SMILES IDX 21 26 29 27 22 28 24 29 23 30 25 31 26 32 27 33 28 34
REMARK H PARENT 13 9 8 20 8 21
ROOT
ATOM      1  C   UNL     1      18.412 -25.736   1.665  1.00  0.00    +0.051 C 
ATOM      2  C   UNL     1      18.464 -24.208   1.553  1.00  0.00    +0.144 C 
ATOM      3  N   UNL     1      19.159 -23.675   2.709  1.00  0.00    -0.319 N 
ATOM      4  C   UNL     1      18.338 -22.928   3.518  1.00  0.00    +0.325 C 
ATOM      5  O   UNL     1      18.714 -22.329   4.511  1.00  0.00    -0.248 OA
ATOM      6  N   UNL     1      17.076 -22.967   3.015  1.00  0.00    -0.254 N 
ATOM      7  C   UNL     1      17.043 -23.665   1.838  1.00  0.00    +0.261 C 
ATOM      8  O   UNL     1      16.051 -23.843   1.142  1.00  0.00    -0.271 OA
ATOM      9  H   UNL     1      20.161 -23.676   2.839  1.00  0.00    +0.166 HD
ENDROOT
BRANCH   2  10
ATOM     10  C   UNL     1      19.047 -23.641   0.259  1.00  0.00    -0.013 A 
ATOM     11  C   UNL     1      19.875 -24.400  -0.589  1.00  0.00    +0.008 A 
ATOM     12  C   UNL     1      18.763 -22.312  -0.121  1.00  0.00    +0.008 A 
ATOM     13  C   UNL     1      20.388 -23.860  -1.772  1.00  0.00    +0.022 A 
ATOM     14  C   UNL     1      19.274 -21.764  -1.300  1.00  0.00    +0.022 A 
ATOM     15  C   UNL     1      20.075 -22.547  -2.126  1.00  0.00    +0.082 A 
BRANCH  15  16
ATOM     16  S   UNL     1      20.724 -21.866  -3.628  1.00  0.00    +0.238 S 
ATOM     17  O   UNL     1      21.107 -22.953  -4.498  1.00  0.00    -0.207 OA
ATOM     18  O   UNL     1      21.623 -20.786  -3.292  1.00  0.00    -0.207 OA
BRANCH  16  19
ATOM     19  N   UNL     1      19.354 -21.136  -4.282  1.00  0.00    -0.225 NA
ATOM     20  H   UNL     1      18.634 -21.850  -4.414  1.00  0.00    +0.137 HD
ATOM     21  H   UNL     1      19.544 -20.627  -5.145  1.00  0.00    +0.137 HD
ENDBRANCH  16  19
ENDBRANCH  15  16
ENDBRANCH   2  10
BRANCH   6  22
ATOM     22  C   UNL     1      15.966 -22.214   3.552  1.00  0.00    +0.211 C 
BRANCH  22  23
ATOM     23  C   UNL     1      16.208 -20.724   3.328  1.00  0.00    +0.182 C 
ATOM     24  O   UNL     1      16.783 -20.284   2.330  1.00  0.00    -0.292 OA
BRANCH  23  25
ATOM     25  C   UNL     1      15.715 -19.760   4.359  1.00  0.00    +0.020 A 
ATOM     26  C   UNL     1      16.333 -19.613   5.606  1.00  0.00    +0.012 A 
ATOM     27  C   UNL     1      14.585 -18.983   4.058  1.00  0.00    +0.025 A 
ATOM     28  C   UNL     1      15.827 -18.701   6.537  1.00  0.00    +0.001 A 
ATOM     29  C   UNL     1      14.074 -18.059   4.985  1.00  0.00    +0.056 A 
ATOM     30  C   UNL     1      14.705 -17.932   6.231  1.00  0.00    +0.013 A 
BRANCH  29  31
ATOM     31  C   UNL     1      12.844 -17.249   4.654  1.00  0.00    +0.416 C 
ATOM     32  F   UNL     1      11.692 -17.969   4.742  1.00  0.00    -0.166 F 
ATOM     33  F   UNL     1      12.865 -16.734   3.392  1.00  0.00    -0.166 F 
ATOM     34  F   UNL     1      12.688 -16.185   5.489  1.00  0.00    -0.166 F 
ENDBRANCH  29  31
ENDBRANCH  23  25
ENDBRANCH  22  23
ENDBRANCH   6  22
TORSDOF 7
ENDMDL
