MODEL 1
REMARK VINA RESULT:    -7.980      0.000      0.000
REMARK INTER + INTRA:         -11.636
REMARK INTER:                 -10.546
REMARK INTRA:                  -1.090
REMARK UNBOUND:                -1.090
REMARK SMILES CC1(c2ccc(S(N)(=O)=O)cc2)NC(=O)N(CC(=O)c2ccc(Cl)s2)C1=O
REMARK SMILES IDX 1 1 2 2 13 3 14 4 15 5 16 6 26 7 27 8 3 10 4 11 12 12 5 13
REMARK SMILES IDX 11 14 6 15 7 16 9 17 10 18 8 19 17 22 18 23 19 24 20 25
REMARK SMILES IDX 21 26 25 27 22 28 23 29 24 30
REMARK H PARENT 13 9 8 20 8 21
ROOT
ATOM      1  C   UNL     1      18.321 -23.811   3.702  1.00  0.00    +0.051 C 
ATOM      2  C   UNL     1      17.403 -23.084   2.719  1.00  0.00    +0.144 C 
ATOM      3  N   UNL     1      16.483 -24.009   2.083  1.00  0.00    -0.319 N 
ATOM      4  C   UNL     1      16.597 -24.001   0.715  1.00  0.00    +0.325 C 
ATOM      5  O   UNL     1      15.826 -24.564  -0.043  1.00  0.00    -0.248 OA
ATOM      6  N   UNL     1      17.686 -23.267   0.373  1.00  0.00    -0.254 N 
ATOM      7  C   UNL     1      18.238 -22.685   1.477  1.00  0.00    +0.261 C 
ATOM      8  O   UNL     1      19.224 -21.957   1.471  1.00  0.00    -0.271 OA
ATOM      9  H   UNL     1      15.632 -24.356   2.505  1.00  0.00    +0.166 HD
ENDROOT
BRANCH   2  10
ATOM     10  C   UNL     1      16.617 -21.943   3.364  1.00  0.00    -0.013 A 
ATOM     11  C   UNL     1      16.836 -20.591   3.038  1.00  0.00    +0.008 A 
ATOM     12  C   UNL     1      15.607 -22.236   4.306  1.00  0.00    +0.008 A 
ATOM     13  C   UNL     1      16.088 -19.572   3.631  1.00  0.00    +0.022 A 
ATOM     14  C   UNL     1      14.851 -21.222   4.900  1.00  0.00    +0.022 A 
ATOM     15  C   UNL     1      15.090 -19.894   4.551  1.00  0.00    +0.082 A 
BRANCH  15  16
ATOM     16  S   UNL     1      14.137 -18.601   5.300  1.00  0.00    +0.238 S 
ATOM     17  O   UNL     1      14.870 -18.087   6.432  1.00  0.00    -0.207 OA
ATOM     18  O   UNL     1      12.764 -19.039   5.396  1.00  0.00    -0.207 OA
BRANCH  16  19
ATOM     19  N   UNL     1      14.212 -17.403   4.118  1.00  0.00    -0.225 NA
ATOM     20  H   UNL     1      14.958 -17.555   3.439  1.00  0.00    +0.137 HD
ATOM     21  H   UNL     1      14.300 -16.494   4.577  1.00  0.00    +0.137 HD
ENDBRANCH  16  19
ENDBRANCH  15  16
ENDBRANCH   2  10
BRANCH   6  22
ATOM     22  C   UNL     1      18.077 -22.978  -0.988  1.00  0.00    +0.212 C 
BRANCH  22  23
ATOM     23  C   UNL     1      17.046 -22.051  -1.644  1.00  0.00    +0.192 C 
ATOM     24  O   UNL     1      16.272 -22.477  -2.505  1.00  0.00    -0.291 OA
BRANCH  23  25
ATOM     25  C   UNL     1      17.033 -20.670  -1.165  1.00  0.00    +0.074 A 
ATOM     26  C   UNL     1      17.935 -19.640  -1.386  1.00  0.00    +0.025 A 
ATOM     27  S   UNL     1      15.737 -20.146  -0.160  1.00  0.00    -0.120 S 
ATOM     28  C   UNL     1      17.552 -18.428  -0.730  1.00  0.00    +0.033 A 
ATOM     29  C   UNL     1      16.381 -18.590  -0.040  1.00  0.00    +0.094 A 
ATOM     30 Cl   UNL     1      15.565 -17.395   0.885  1.00  0.00    -0.072 Cl
ENDBRANCH  23  25
ENDBRANCH  22  23
ENDBRANCH   6  22
TORSDOF 6
ENDMDL
MODEL 2
REMARK VINA RESULT:    -7.773      2.704      3.486
REMARK INTER + INTRA:         -11.362
REMARK INTER:                 -10.671
REMARK INTRA:                  -0.692
REMARK UNBOUND:                -1.090
REMARK SMILES CC1(c2ccc(S(N)(=O)=O)cc2)NC(=O)N(CC(=O)c2ccc(Cl)s2)C1=O
REMARK SMILES IDX 1 1 2 2 13 3 14 4 15 5 16 6 26 7 27 8 3 10 4 11 12 12 5 13
REMARK SMILES IDX 11 14 6 15 7 16 9 17 10 18 8 19 17 22 18 23 19 24 20 25
REMARK SMILES IDX 21 26 25 27 22 28 23 29 24 30
REMARK H PARENT 13 9 8 20 8 21
ROOT
ATOM      1  C   UNL     1      17.897 -23.644   3.794  1.00  0.00    +0.051 C 
ATOM      2  C   UNL     1      17.192 -22.745   2.775  1.00  0.00    +0.144 C 
ATOM      3  N   UNL     1      16.379 -23.529   1.864  1.00  0.00    -0.319 N 
ATOM      4  C   UNL     1      16.741 -23.345   0.552  1.00  0.00    +0.325 C 
ATOM      5  O   UNL     1      16.106 -23.762  -0.401  1.00  0.00    -0.248 OA
ATOM      6  N   UNL     1      17.893 -22.630   0.514  1.00  0.00    -0.254 N 
ATOM      7  C   UNL     1      18.251 -22.229   1.769  1.00  0.00    +0.261 C 
ATOM      8  O   UNL     1      19.240 -21.559   2.039  1.00  0.00    -0.271 OA
ATOM      9  H   UNL     1      15.457 -23.885   2.075  1.00  0.00    +0.166 HD
ENDROOT
BRANCH   2  10
ATOM     10  C   UNL     1      16.333 -21.662   3.425  1.00  0.00    -0.013 A 
ATOM     11  C   UNL     1      15.576 -21.892   4.589  1.00  0.00    +0.008 A 
ATOM     12  C   UNL     1      16.306 -20.365   2.869  1.00  0.00    +0.008 A 
ATOM     13  C   UNL     1      14.815 -20.875   5.171  1.00  0.00    +0.022 A 
ATOM     14  C   UNL     1      15.550 -19.342   3.448  1.00  0.00    +0.022 A 
ATOM     15  C   UNL     1      14.815 -19.601   4.603  1.00  0.00    +0.082 A 
BRANCH  15  16
ATOM     16  S   UNL     1      13.855 -18.309   5.345  1.00  0.00    +0.238 S 
ATOM     17  O   UNL     1      14.584 -17.788   6.477  1.00  0.00    -0.207 OA
ATOM     18  O   UNL     1      12.484 -18.752   5.441  1.00  0.00    -0.207 OA
BRANCH  16  19
ATOM     19  N   UNL     1      13.929 -17.115   4.159  1.00  0.00    -0.225 NA
ATOM     20  H   UNL     1      14.633 -16.402   4.351  1.00  0.00    +0.137 HD
ATOM     21  H   UNL     1      12.999 -16.707   4.046  1.00  0.00    +0.137 HD
ENDBRANCH  16  19
ENDBRANCH  15  16
ENDBRANCH   2  10
BRANCH   6  22
ATOM     22  C   UNL     1      18.533 -22.183  -0.702  1.00  0.00    +0.212 C 
BRANCH  22  23
ATOM     23  C   UNL     1      19.568 -23.219  -1.161  1.00  0.00    +0.192 C 
ATOM     24  O   UNL     1      19.976 -24.089  -0.387  1.00  0.00    -0.291 OA
BRANCH  23  25
ATOM     25  C   UNL     1      20.000 -23.116  -2.553  1.00  0.00    +0.074 A 
ATOM     26  C   UNL     1      20.764 -23.984  -3.317  1.00  0.00    +0.025 A 
ATOM     27  S   UNL     1      19.541 -21.733  -3.470  1.00  0.00    -0.120 S 
ATOM     28  C   UNL     1      20.964 -23.508  -4.651  1.00  0.00    +0.033 A 
ATOM     29  C   UNL     1      20.346 -22.301  -4.841  1.00  0.00    +0.094 A 
ATOM     30 Cl   UNL     1      20.331 -21.376  -6.288  1.00  0.00    -0.072 Cl
ENDBRANCH  23  25
ENDBRANCH  22  23
ENDBRANCH   6  22
TORSDOF 6
ENDMDL
MODEL 3
REMARK VINA RESULT:    -7.761      2.816      3.331
REMARK INTER + INTRA:         -11.346
REMARK INTER:                 -10.635
REMARK INTRA:                  -0.711
REMARK UNBOUND:                -1.090
REMARK SMILES CC1(c2ccc(S(N)(=O)=O)cc2)NC(=O)N(CC(=O)c2ccc(Cl)s2)C1=O
REMARK SMILES IDX 1 1 2 2 13 3 14 4 15 5 16 6 26 7 27 8 3 10 4 11 12 12 5 13
REMARK SMILES IDX 11 14 6 15 7 16 9 17 10 18 8 19 17 22 18 23 19 24 20 25
REMARK SMILES IDX 21 26 25 27 22 28 23 29 24 30
REMARK H PARENT 13 9 8 20 8 21
ROOT
ATOM      1  C   UNL     1      17.952 -23.584   3.931  1.00  0.00    +0.051 C 
ATOM      2  C   UNL     1      17.220 -22.737   2.888  1.00  0.00    +0.144 C 
ATOM      3  N   UNL     1      16.365 -23.561   2.054  1.00  0.00    -0.319 N 
ATOM      4  C   UNL     1      16.679 -23.456   0.722  1.00  0.00    +0.325 C 
ATOM      5  O   UNL     1      16.005 -23.919  -0.182  1.00  0.00    -0.248 OA
ATOM      6  N   UNL     1      17.837 -22.760   0.600  1.00  0.00    -0.254 N 
ATOM      7  C   UNL     1      18.246 -22.293   1.816  1.00  0.00    +0.261 C 
ATOM      8  O   UNL     1      19.253 -21.622   2.010  1.00  0.00    -0.271 OA
ATOM      9  H   UNL     1      15.447 -23.891   2.320  1.00  0.00    +0.166 HD
ENDROOT
BRANCH   2  10
ATOM     10  C   UNL     1      16.398 -21.606   3.506  1.00  0.00    -0.013 A 
ATOM     11  C   UNL     1      16.383 -20.302   2.975  1.00  0.00    +0.008 A 
ATOM     12  C   UNL     1      15.593 -21.865   4.635  1.00  0.00    +0.008 A 
ATOM     13  C   UNL     1      15.606 -19.295   3.551  1.00  0.00    +0.022 A 
ATOM     14  C   UNL     1      14.809 -20.863   5.214  1.00  0.00    +0.022 A 
ATOM     15  C   UNL     1      14.813 -19.583   4.661  1.00  0.00    +0.082 A 
BRANCH  15  16
ATOM     16  S   UNL     1      13.822 -18.306   5.388  1.00  0.00    +0.238 S 
ATOM     17  O   UNL     1      14.520 -17.783   6.539  1.00  0.00    -0.207 OA
ATOM     18  O   UNL     1      12.454 -18.765   5.450  1.00  0.00    -0.207 OA
BRANCH  16  19
ATOM     19  N   UNL     1      13.909 -17.105   4.210  1.00  0.00    -0.225 NA
ATOM     20  H   UNL     1      13.982 -16.165   4.600  1.00  0.00    +0.137 HD
ATOM     21  H   UNL     1      13.103 -17.194   3.589  1.00  0.00    +0.137 HD
ENDBRANCH  16  19
ENDBRANCH  15  16
ENDBRANCH   2  10
BRANCH   6  22
ATOM     22  C   UNL     1      18.436 -22.392  -0.662  1.00  0.00    +0.212 C 
BRANCH  22  23
ATOM     23  C   UNL     1      19.613 -23.325  -0.975  1.00  0.00    +0.192 C 
ATOM     24  O   UNL     1      19.663 -24.461  -0.496  1.00  0.00    -0.291 OA
BRANCH  23  25
ATOM     25  C   UNL     1      20.628 -22.790  -1.880  1.00  0.00    +0.074 A 
ATOM     26  C   UNL     1      22.011 -22.796  -1.775  1.00  0.00    +0.025 A 
ATOM     27  S   UNL     1      20.127 -22.008  -3.330  1.00  0.00    -0.120 S 
ATOM     28  C   UNL     1      22.647 -22.162  -2.888  1.00  0.00    +0.033 A 
ATOM     29  C   UNL     1      21.723 -21.699  -3.786  1.00  0.00    +0.094 A 
ATOM     30 Cl   UNL     1      22.049 -20.877  -5.258  1.00  0.00    -0.072 Cl
ENDBRANCH  23  25
ENDBRANCH  22  23
ENDBRANCH   6  22
TORSDOF 6
ENDMDL
MODEL 4
REMARK VINA RESULT:    -7.598      3.212      3.651
REMARK INTER + INTRA:         -11.131
REMARK INTER:                 -10.363
REMARK INTRA:                  -0.767
REMARK UNBOUND:                -1.090
REMARK SMILES CC1(c2ccc(S(N)(=O)=O)cc2)NC(=O)N(CC(=O)c2ccc(Cl)s2)C1=O
REMARK SMILES IDX 1 1 2 2 13 3 14 4 15 5 16 6 26 7 27 8 3 10 4 11 12 12 5 13
REMARK SMILES IDX 11 14 6 15 7 16 9 17 10 18 8 19 17 22 18 23 19 24 20 25
REMARK SMILES IDX 21 26 25 27 22 28 23 29 24 30
REMARK H PARENT 13 9 8 20 8 21
ROOT
ATOM      1  C   UNL     1      17.837 -23.687   2.808  1.00  0.00    +0.051 C 
ATOM      2  C   UNL     1      17.387 -22.467   2.003  1.00  0.00    +0.144 C 
ATOM      3  N   UNL     1      16.591 -22.863   0.856  1.00  0.00    -0.319 N 
ATOM      4  C   UNL     1      17.129 -22.424  -0.328  1.00  0.00    +0.325 C 
ATOM      5  O   UNL     1      16.563 -22.488  -1.406  1.00  0.00    -0.248 OA
ATOM      6  N   UNL     1      18.362 -21.915  -0.085  1.00  0.00    -0.254 N 
ATOM      7  C   UNL     1      18.618 -21.897   1.256  1.00  0.00    +0.261 C 
ATOM      8  O   UNL     1      19.649 -21.480   1.770  1.00  0.00    -0.271 OA
ATOM      9  H   UNL     1      15.611 -23.107   0.892  1.00  0.00    +0.166 HD
ENDROOT
BRANCH   2  10
ATOM     10  C   UNL     1      16.609 -21.452   2.840  1.00  0.00    -0.013 A 
ATOM     11  C   UNL     1      16.448 -20.110   2.446  1.00  0.00    +0.008 A 
ATOM     12  C   UNL     1      15.995 -21.862   4.042  1.00  0.00    +0.008 A 
ATOM     13  C   UNL     1      15.714 -19.210   3.223  1.00  0.00    +0.022 A 
ATOM     14  C   UNL     1      15.256 -20.969   4.823  1.00  0.00    +0.022 A 
ATOM     15  C   UNL     1      15.112 -19.648   4.402  1.00  0.00    +0.082 A 
BRANCH  15  16
ATOM     16  S   UNL     1      14.176 -18.508   5.385  1.00  0.00    +0.238 S 
ATOM     17  O   UNL     1      14.983 -18.103   6.512  1.00  0.00    -0.207 OA
ATOM     18  O   UNL     1      12.835 -19.022   5.534  1.00  0.00    -0.207 OA
BRANCH  16  19
ATOM     19  N   UNL     1      14.103 -17.168   4.365  1.00  0.00    -0.225 NA
ATOM     20  H   UNL     1      13.153 -16.829   4.215  1.00  0.00    +0.137 HD
ATOM     21  H   UNL     1      14.565 -17.401   3.484  1.00  0.00    +0.137 HD
ENDBRANCH  16  19
ENDBRANCH  15  16
ENDBRANCH   2  10
BRANCH   6  22
ATOM     22  C   UNL     1      19.198 -21.293  -1.087  1.00  0.00    +0.212 C 
BRANCH  22  23
ATOM     23  C   UNL     1      20.170 -22.325  -1.673  1.00  0.00    +0.192 C 
ATOM     24  O   UNL     1      20.582 -23.265  -0.988  1.00  0.00    -0.291 OA
BRANCH  23  25
ATOM     25  C   UNL     1      20.539 -22.131  -3.073  1.00  0.00    +0.074 A 
ATOM     26  C   UNL     1      21.460 -21.263  -3.642  1.00  0.00    +0.025 A 
ATOM     27  S   UNL     1      19.762 -23.079  -4.283  1.00  0.00    -0.120 S 
ATOM     28  C   UNL     1      21.521 -21.387  -5.066  1.00  0.00    +0.033 A 
ATOM     29  C   UNL     1      20.645 -22.338  -5.516  1.00  0.00    +0.094 A 
ATOM     30 Cl   UNL     1      20.394 -22.806  -7.149  1.00  0.00    -0.072 Cl
ENDBRANCH  23  25
ENDBRANCH  22  23
ENDBRANCH   6  22
TORSDOF 6
ENDMDL
MODEL 5
REMARK VINA RESULT:    -7.551      3.058      7.164
REMARK INTER + INTRA:         -11.069
REMARK INTER:                 -10.212
REMARK INTRA:                  -0.857
REMARK UNBOUND:                -1.090
REMARK SMILES CC1(c2ccc(S(N)(=O)=O)cc2)NC(=O)N(CC(=O)c2ccc(Cl)s2)C1=O
REMARK SMILES IDX 1 1 2 2 13 3 14 4 15 5 16 6 26 7 27 8 3 10 4 11 12 12 5 13
REMARK SMILES IDX 11 14 6 15 7 16 9 17 10 18 8 19 17 22 18 23 19 24 20 25
REMARK SMILES IDX 21 26 25 27 22 28 23 29 24 30
REMARK H PARENT 13 9 8 20 8 21
ROOT
ATOM      1  C   UNL     1      15.880 -23.837  -0.147  1.00  0.00    +0.051 C 
ATOM      2  C   UNL     1      17.237 -23.270   0.273  1.00  0.00    +0.144 C 
ATOM      3  N   UNL     1      17.953 -24.205   1.122  1.00  0.00    -0.319 N 
ATOM      4  C   UNL     1      18.267 -23.665   2.343  1.00  0.00    +0.325 C 
ATOM      5  O   UNL     1      19.004 -24.191   3.159  1.00  0.00    -0.248 OA
ATOM      6  N   UNL     1      17.634 -22.471   2.469  1.00  0.00    -0.254 N 
ATOM      7  C   UNL     1      16.994 -22.144   1.308  1.00  0.00    +0.261 C 
ATOM      8  O   UNL     1      16.349 -21.119   1.125  1.00  0.00    -0.271 OA
ATOM      9  H   UNL     1      18.475 -25.003   0.786  1.00  0.00    +0.166 HD
ENDROOT
BRANCH   2  10
ATOM     10  C   UNL     1      18.117 -22.880  -0.914  1.00  0.00    -0.013 A 
ATOM     11  C   UNL     1      19.461 -23.283  -1.027  1.00  0.00    +0.008 A 
ATOM     12  C   UNL     1      17.571 -22.109  -1.964  1.00  0.00    +0.008 A 
ATOM     13  C   UNL     1      20.233 -22.927  -2.135  1.00  0.00    +0.022 A 
ATOM     14  C   UNL     1      18.337 -21.752  -3.077  1.00  0.00    +0.022 A 
ATOM     15  C   UNL     1      19.664 -22.172  -3.160  1.00  0.00    +0.082 A 
BRANCH  15  16
ATOM     16  S   UNL     1      20.643 -21.725  -4.568  1.00  0.00    +0.238 S 
ATOM     17  O   UNL     1      20.924 -22.919  -5.330  1.00  0.00    -0.207 OA
ATOM     18  O   UNL     1      21.679 -20.815  -4.138  1.00  0.00    -0.207 OA
BRANCH  16  19
ATOM     19  N   UNL     1      19.533 -20.846  -5.481  1.00  0.00    -0.225 NA
ATOM     20  H   UNL     1      19.455 -19.871  -5.189  1.00  0.00    +0.137 HD
ATOM     21  H   UNL     1      18.630 -21.323  -5.449  1.00  0.00    +0.137 HD
ENDBRANCH  16  19
ENDBRANCH  15  16
ENDBRANCH   2  10
BRANCH   6  22
ATOM     22  C   UNL     1      17.789 -21.583   3.597  1.00  0.00    +0.212 C 
BRANCH  22  23
ATOM     23  C   UNL     1      16.757 -21.924   4.679  1.00  0.00    +0.192 C 
ATOM     24  O   UNL     1      16.887 -22.930   5.381  1.00  0.00    -0.291 OA
BRANCH  23  25
ATOM     25  C   UNL     1      15.653 -20.979   4.829  1.00  0.00    +0.074 A 
ATOM     26  C   UNL     1      14.456 -21.105   5.518  1.00  0.00    +0.025 A 
ATOM     27  S   UNL     1      15.760 -19.440   4.062  1.00  0.00    -0.120 S 
ATOM     28  C   UNL     1      13.638 -19.936   5.413  1.00  0.00    +0.033 A 
ATOM     29  C   UNL     1      14.246 -18.976   4.650  1.00  0.00    +0.094 A 
ATOM     30 Cl   UNL     1      13.620 -17.424   4.267  1.00  0.00    -0.072 Cl
ENDBRANCH  23  25
ENDBRANCH  22  23
ENDBRANCH   6  22
TORSDOF 6
ENDMDL
MODEL 6
REMARK VINA RESULT:    -7.471      2.678      4.476
REMARK INTER + INTRA:         -10.964
REMARK INTER:                  -9.808
REMARK INTRA:                  -1.156
REMARK UNBOUND:                -1.090
REMARK SMILES CC1(c2ccc(S(N)(=O)=O)cc2)NC(=O)N(CC(=O)c2ccc(Cl)s2)C1=O
REMARK SMILES IDX 1 1 2 2 13 3 14 4 15 5 16 6 26 7 27 8 3 10 4 11 12 12 5 13
REMARK SMILES IDX 11 14 6 15 7 16 9 17 10 18 8 19 17 22 18 23 19 24 20 25
REMARK SMILES IDX 21 26 25 27 22 28 23 29 24 30
REMARK H PARENT 13 9 8 20 8 21
ROOT
ATOM      1  C   UNL     1      16.570 -18.655  -0.952  1.00  0.00    +0.051 C 
ATOM      2  C   UNL     1      16.846 -19.752   0.077  1.00  0.00    +0.144 C 
ATOM      3  N   UNL     1      18.272 -19.916   0.295  1.00  0.00    -0.319 N 
ATOM      4  C   UNL     1      18.696 -21.194   0.029  1.00  0.00    +0.325 C 
ATOM      5  O   UNL     1      19.808 -21.619   0.293  1.00  0.00    -0.248 OA
ATOM      6  N   UNL     1      17.681 -21.879  -0.554  1.00  0.00    -0.254 N 
ATOM      7  C   UNL     1      16.545 -21.122  -0.580  1.00  0.00    +0.261 C 
ATOM      8  O   UNL     1      15.467 -21.484  -1.037  1.00  0.00    -0.271 OA
ATOM      9  H   UNL     1      18.836 -19.323   0.888  1.00  0.00    +0.166 HD
ENDROOT
BRANCH   2  10
ATOM     10  C   UNL     1      16.149 -19.508   1.415  1.00  0.00    -0.013 A 
ATOM     11  C   UNL     1      16.449 -20.250   2.573  1.00  0.00    +0.008 A 
ATOM     12  C   UNL     1      15.184 -18.484   1.522  1.00  0.00    +0.008 A 
ATOM     13  C   UNL     1      15.809 -19.989   3.787  1.00  0.00    +0.022 A 
ATOM     14  C   UNL     1      14.541 -18.215   2.734  1.00  0.00    +0.022 A 
ATOM     15  C   UNL     1      14.866 -18.965   3.863  1.00  0.00    +0.082 A 
BRANCH  15  16
ATOM     16  S   UNL     1      14.057 -18.630   5.405  1.00  0.00    +0.238 S 
ATOM     17  O   UNL     1      13.830 -19.884   6.085  1.00  0.00    -0.207 OA
ATOM     18  O   UNL     1      13.004 -17.670   5.173  1.00  0.00    -0.207 OA
BRANCH  16  19
ATOM     19  N   UNL     1      15.282 -17.855   6.264  1.00  0.00    -0.225 NA
ATOM     20  H   UNL     1      15.547 -18.348   7.117  1.00  0.00    +0.137 HD
ATOM     21  H   UNL     1      14.991 -16.895   6.456  1.00  0.00    +0.137 HD
ENDBRANCH  16  19
ENDBRANCH  15  16
ENDBRANCH   2  10
BRANCH   6  22
ATOM     22  C   UNL     1      17.740 -23.279  -0.907  1.00  0.00    +0.212 C 
BRANCH  22  23
ATOM     23  C   UNL     1      17.088 -24.125   0.194  1.00  0.00    +0.192 C 
ATOM     24  O   UNL     1      16.029 -24.722  -0.013  1.00  0.00    -0.291 OA
BRANCH  23  25
ATOM     25  C   UNL     1      17.812 -24.190   1.461  1.00  0.00    +0.074 A 
ATOM     26  C   UNL     1      17.427 -23.790   2.732  1.00  0.00    +0.025 A 
ATOM     27  S   UNL     1      19.404 -24.849   1.482  1.00  0.00    -0.120 S 
ATOM     28  C   UNL     1      18.440 -24.030   3.712  1.00  0.00    +0.033 A 
ATOM     29  C   UNL     1      19.549 -24.598   3.146  1.00  0.00    +0.094 A 
ATOM     30 Cl   UNL     1      20.994 -25.050   3.956  1.00  0.00    -0.072 Cl
ENDBRANCH  23  25
ENDBRANCH  22  23
ENDBRANCH   6  22
TORSDOF 6
ENDMDL
MODEL 7
REMARK VINA RESULT:    -7.471      1.611      2.041
REMARK INTER + INTRA:         -10.963
REMARK INTER:                  -9.986
REMARK INTRA:                  -0.977
REMARK UNBOUND:                -1.090
REMARK SMILES CC1(c2ccc(S(N)(=O)=O)cc2)NC(=O)N(CC(=O)c2ccc(Cl)s2)C1=O
REMARK SMILES IDX 1 1 2 2 13 3 14 4 15 5 16 6 26 7 27 8 3 10 4 11 12 12 5 13
REMARK SMILES IDX 11 14 6 15 7 16 9 17 10 18 8 19 17 22 18 23 19 24 20 25
REMARK SMILES IDX 21 26 25 27 22 28 23 29 24 30
REMARK H PARENT 13 9 8 20 8 21
ROOT
ATOM      1  C   UNL     1      19.827 -22.999   4.888  1.00  0.00    +0.051 C 
ATOM      2  C   UNL     1      18.611 -23.025   3.961  1.00  0.00    +0.144 C 
ATOM      3  N   UNL     1      17.983 -24.333   3.961  1.00  0.00    -0.319 N 
ATOM      4  C   UNL     1      17.928 -24.885   2.706  1.00  0.00    +0.325 C 
ATOM      5  O   UNL     1      17.305 -25.895   2.425  1.00  0.00    -0.248 OA
ATOM      6  N   UNL     1      18.663 -24.120   1.860  1.00  0.00    -0.254 N 
ATOM      7  C   UNL     1      19.116 -23.001   2.497  1.00  0.00    +0.261 C 
ATOM      8  O   UNL     1      19.796 -22.123   1.980  1.00  0.00    -0.271 OA
ATOM      9  H   UNL     1      17.351 -24.669   4.675  1.00  0.00    +0.166 HD
ENDROOT
BRANCH   2  10
ATOM     10  C   UNL     1      17.572 -21.958   4.306  1.00  0.00    -0.013 A 
ATOM     11  C   UNL     1      16.782 -21.326   3.327  1.00  0.00    +0.008 A 
ATOM     12  C   UNL     1      17.360 -21.600   5.654  1.00  0.00    +0.008 A 
ATOM     13  C   UNL     1      15.826 -20.369   3.676  1.00  0.00    +0.022 A 
ATOM     14  C   UNL     1      16.403 -20.646   6.011  1.00  0.00    +0.022 A 
ATOM     15  C   UNL     1      15.634 -20.042   5.018  1.00  0.00    +0.082 A 
BRANCH  15  16
ATOM     16  S   UNL     1      14.417 -18.832   5.461  1.00  0.00    +0.238 S 
ATOM     17  O   UNL     1      14.952 -18.010   6.521  1.00  0.00    -0.207 OA
ATOM     18  O   UNL     1      13.132 -19.485   5.558  1.00  0.00    -0.207 OA
BRANCH  16  19
ATOM     19  N   UNL     1      14.398 -17.858   4.087  1.00  0.00    -0.225 NA
ATOM     20  H   UNL     1      14.992 -18.212   3.336  1.00  0.00    +0.137 HD
ATOM     21  H   UNL     1      14.654 -16.906   4.355  1.00  0.00    +0.137 HD
ENDBRANCH  16  19
ENDBRANCH  15  16
ENDBRANCH   2  10
BRANCH   6  22
ATOM     22  C   UNL     1      18.774 -24.355   0.439  1.00  0.00    +0.212 C 
BRANCH  22  23
ATOM     23  C   UNL     1      17.545 -23.789  -0.284  1.00  0.00    +0.192 C 
ATOM     24  O   UNL     1      16.454 -24.363  -0.220  1.00  0.00    -0.291 OA
BRANCH  23  25
ATOM     25  C   UNL     1      17.752 -22.539  -1.012  1.00  0.00    +0.074 A 
ATOM     26  C   UNL     1      18.307 -22.316  -2.263  1.00  0.00    +0.025 A 
ATOM     27  S   UNL     1      17.266 -21.056  -0.284  1.00  0.00    -0.120 S 
ATOM     28  C   UNL     1      18.326 -20.929  -2.614  1.00  0.00    +0.033 A 
ATOM     29  C   UNL     1      17.788 -20.161  -1.617  1.00  0.00    +0.094 A 
ATOM     30 Cl   UNL     1      17.614 -18.453  -1.621  1.00  0.00    -0.072 Cl
ENDBRANCH  23  25
ENDBRANCH  22  23
ENDBRANCH   6  22
TORSDOF 6
ENDMDL
MODEL 8
REMARK VINA RESULT:    -7.340      3.887      4.583
REMARK INTER + INTRA:         -10.790
REMARK INTER:                  -9.858
REMARK INTRA:                  -0.932
REMARK UNBOUND:                -1.090
REMARK SMILES CC1(c2ccc(S(N)(=O)=O)cc2)NC(=O)N(CC(=O)c2ccc(Cl)s2)C1=O
REMARK SMILES IDX 1 1 2 2 13 3 14 4 15 5 16 6 26 7 27 8 3 10 4 11 12 12 5 13
REMARK SMILES IDX 11 14 6 15 7 16 9 17 10 18 8 19 17 22 18 23 19 24 20 25
REMARK SMILES IDX 21 26 25 27 22 28 23 29 24 30
REMARK H PARENT 13 9 8 20 8 21
ROOT
ATOM      1  C   UNL     1      16.137 -23.553  -0.424  1.00  0.00    +0.051 C 
ATOM      2  C   UNL     1      17.158 -22.525   0.068  1.00  0.00    +0.144 C 
ATOM      3  N   UNL     1      17.312 -21.445  -0.889  1.00  0.00    -0.319 N 
ATOM      4  C   UNL     1      18.608 -21.312  -1.321  1.00  0.00    +0.325 C 
ATOM      5  O   UNL     1      19.017 -20.381  -1.993  1.00  0.00    -0.248 OA
ATOM      6  N   UNL     1      19.329 -22.370  -0.871  1.00  0.00    -0.254 N 
ATOM      7  C   UNL     1      18.570 -23.151  -0.047  1.00  0.00    +0.261 C 
ATOM      8  O   UNL     1      18.960 -24.167   0.515  1.00  0.00    -0.271 OA
ATOM      9  H   UNL     1      16.680 -20.661  -0.979  1.00  0.00    +0.166 HD
ENDROOT
BRANCH   2  10
ATOM     10  C   UNL     1      16.814 -21.949   1.441  1.00  0.00    -0.013 A 
ATOM     11  C   UNL     1      16.772 -20.564   1.693  1.00  0.00    +0.008 A 
ATOM     12  C   UNL     1      16.493 -22.820   2.504  1.00  0.00    +0.008 A 
ATOM     13  C   UNL     1      16.435 -20.067   2.954  1.00  0.00    +0.022 A 
ATOM     14  C   UNL     1      16.151 -22.330   3.767  1.00  0.00    +0.022 A 
ATOM     15  C   UNL     1      16.114 -20.954   3.982  1.00  0.00    +0.082 A 
BRANCH  15  16
ATOM     16  S   UNL     1      15.680 -20.323   5.580  1.00  0.00    +0.238 S 
ATOM     17  O   UNL     1      14.389 -20.856   5.948  1.00  0.00    -0.207 OA
ATOM     18  O   UNL     1      15.976 -18.910   5.614  1.00  0.00    -0.207 OA
BRANCH  16  19
ATOM     19  N   UNL     1      16.801 -21.107   6.565  1.00  0.00    -0.225 NA
ATOM     20  H   UNL     1      17.645 -20.558   6.729  1.00  0.00    +0.137 HD
ATOM     21  H   UNL     1      17.016 -22.018   6.156  1.00  0.00    +0.137 HD
ENDBRANCH  16  19
ENDBRANCH  15  16
ENDBRANCH   2  10
BRANCH   6  22
ATOM     22  C   UNL     1      20.751 -22.530  -1.071  1.00  0.00    +0.212 C 
BRANCH  22  23
ATOM     23  C   UNL     1      21.012 -23.405  -2.304  1.00  0.00    +0.192 C 
ATOM     24  O   UNL     1      21.070 -24.633  -2.205  1.00  0.00    -0.291 OA
BRANCH  23  25
ATOM     25  C   UNL     1      21.155 -22.693  -3.572  1.00  0.00    +0.074 A 
ATOM     26  C   UNL     1      21.804 -21.502  -3.859  1.00  0.00    +0.025 A 
ATOM     27  S   UNL     1      20.439 -23.358  -4.990  1.00  0.00    -0.120 S 
ATOM     28  C   UNL     1      21.710 -21.147  -5.241  1.00  0.00    +0.033 A 
ATOM     29  C   UNL     1      20.994 -22.079  -5.942  1.00  0.00    +0.094 A 
ATOM     30 Cl   UNL     1      20.639 -22.047  -7.622  1.00  0.00    -0.072 Cl
ENDBRANCH  23  25
ENDBRANCH  22  23
ENDBRANCH   6  22
TORSDOF 6
ENDMDL
MODEL 9
REMARK VINA RESULT:    -7.154      3.762      5.342
REMARK INTER + INTRA:         -10.544
REMARK INTER:                  -9.646
REMARK INTRA:                  -0.898
REMARK UNBOUND:                -1.090
REMARK SMILES CC1(c2ccc(S(N)(=O)=O)cc2)NC(=O)N(CC(=O)c2ccc(Cl)s2)C1=O
REMARK SMILES IDX 1 1 2 2 13 3 14 4 15 5 16 6 26 7 27 8 3 10 4 11 12 12 5 13
REMARK SMILES IDX 11 14 6 15 7 16 9 17 10 18 8 19 17 22 18 23 19 24 20 25
REMARK SMILES IDX 21 26 25 27 22 28 23 29 24 30
REMARK H PARENT 13 9 8 20 8 21
ROOT
ATOM      1  C   UNL     1      16.729 -20.888  -0.260  1.00  0.00    +0.051 C 
ATOM      2  C   UNL     1      17.247 -21.226   1.140  1.00  0.00    +0.144 C 
ATOM      3  N   UNL     1      18.660 -20.917   1.261  1.00  0.00    -0.319 N 
ATOM      4  C   UNL     1      19.405 -22.016   1.611  1.00  0.00    +0.325 C 
ATOM      5  O   UNL     1      20.580 -21.976   1.931  1.00  0.00    -0.248 OA
ATOM      6  N   UNL     1      18.616 -23.117   1.545  1.00  0.00    -0.254 N 
ATOM      7  C   UNL     1      17.326 -22.767   1.270  1.00  0.00    +0.261 C 
ATOM      8  O   UNL     1      16.391 -23.551   1.162  1.00  0.00    -0.271 OA
ATOM      9  H   UNL     1      19.036 -19.994   1.426  1.00  0.00    +0.166 HD
ENDROOT
BRANCH   2  10
ATOM     10  C   UNL     1      16.472 -20.520   2.252  1.00  0.00    -0.013 A 
ATOM     11  C   UNL     1      16.417 -21.014   3.569  1.00  0.00    +0.008 A 
ATOM     12  C   UNL     1      15.802 -19.308   1.975  1.00  0.00    +0.008 A 
ATOM     13  C   UNL     1      15.716 -20.335   4.568  1.00  0.00    +0.022 A 
ATOM     14  C   UNL     1      15.103 -18.621   2.971  1.00  0.00    +0.022 A 
ATOM     15  C   UNL     1      15.072 -19.136   4.267  1.00  0.00    +0.082 A 
BRANCH  15  16
ATOM     16  S   UNL     1      14.187 -18.271   5.536  1.00  0.00    +0.238 S 
ATOM     17  O   UNL     1      15.086 -18.035   6.642  1.00  0.00    -0.207 OA
ATOM     18  O   UNL     1      12.896 -18.895   5.704  1.00  0.00    -0.207 OA
BRANCH  16  19
ATOM     19  N   UNL     1      13.944 -16.770   4.811  1.00  0.00    -0.225 NA
ATOM     20  H   UNL     1      14.447 -16.663   3.930  1.00  0.00    +0.137 HD
ATOM     21  H   UNL     1      14.193 -16.038   5.479  1.00  0.00    +0.137 HD
ENDBRANCH  16  19
ENDBRANCH  15  16
ENDBRANCH   2  10
BRANCH   6  22
ATOM     22  C   UNL     1      19.042 -24.447   1.916  1.00  0.00    +0.212 C 
BRANCH  22  23
ATOM     23  C   UNL     1      19.216 -25.311   0.660  1.00  0.00    +0.192 C 
ATOM     24  O   UNL     1      19.898 -24.916  -0.289  1.00  0.00    -0.291 OA
BRANCH  23  25
ATOM     25  C   UNL     1      18.553 -26.613   0.685  1.00  0.00    +0.074 A 
ATOM     26  C   UNL     1      17.265 -26.952   1.071  1.00  0.00    +0.025 A 
ATOM     27  S   UNL     1      19.428 -28.007   0.177  1.00  0.00    -0.120 S 
ATOM     28  C   UNL     1      17.006 -28.353   0.943  1.00  0.00    +0.033 A 
ATOM     29  C   UNL     1      18.106 -29.016   0.469  1.00  0.00    +0.094 A 
ATOM     30 Cl   UNL     1      18.233 -30.702   0.167  1.00  0.00    -0.072 Cl
ENDBRANCH  23  25
ENDBRANCH  22  23
ENDBRANCH   6  22
TORSDOF 6
ENDMDL
