MODEL 1
REMARK VINA RESULT:    -9.232      0.000      0.000
REMARK INTER + INTRA:         -11.655
REMARK INTER:                 -10.851
REMARK INTRA:                  -0.804
REMARK UNBOUND:                -0.804
REMARK SMILES Cc1c(CCC(=O)N2CCCC2)c(=O)n2c([nH]c3ccccc32)c1C#N
REMARK SMILES IDX 4 1 3 2 2 3 24 4 13 5 16 6 25 7 14 8 15 9 17 10 26 11 23 12
REMARK SMILES IDX 18 13 22 14 19 15 21 16 20 17 1 18 5 20 6 21 7 22 8 23 9 24
REMARK SMILES IDX 12 25 10 26 11 27
REMARK H PARENT 17 19
ROOT
ATOM      1  C   UNL     1      18.010 -21.946   4.456  1.00  0.00    +0.051 C 
ENDROOT
BRANCH   1   2
ATOM      2  C   UNL     1      17.242 -20.833   3.772  1.00  0.00    +0.023 C 
ATOM      3  C   UNL     1      17.432 -20.407   2.498  1.00  0.00    -0.021 C 
ATOM      4  C   UNL     1      16.575 -19.353   1.929  1.00  0.00    +0.097 C 
ATOM      5  C   UNL     1      16.157 -20.210   4.626  1.00  0.00    +0.260 C 
ATOM      6  C   UNL     1      15.619 -18.791   2.689  1.00  0.00    +0.136 C 
ATOM      7  C   UNL     1      16.743 -18.913   0.582  1.00  0.00    +0.103 C 
ATOM      8  O   UNL     1      15.996 -20.585   5.784  1.00  0.00    -0.269 OA
ATOM      9  N   UNL     1      15.423 -19.232   3.998  1.00  0.00    -0.259 N 
ATOM     10  N   UNL     1      14.706 -17.785   2.383  1.00  0.00    -0.338 N 
ATOM     11  N   UNL     1      16.867 -18.559  -0.517  1.00  0.00    -0.192 NA
ATOM     12  C   UNL     1      14.307 -18.539   4.520  1.00  0.00    +0.074 A 
ATOM     13  C   UNL     1      13.840 -17.695   3.488  1.00  0.00    +0.064 A 
ATOM     14  C   UNL     1      13.680 -18.606   5.746  1.00  0.00    +0.029 A 
ATOM     15  C   UNL     1      12.760 -16.862   3.678  1.00  0.00    +0.028 A 
ATOM     16  C   UNL     1      12.567 -17.782   5.938  1.00  0.00    +0.002 A 
ATOM     17  C   UNL     1      12.114 -16.919   4.919  1.00  0.00    +0.002 A 
ATOM     18  C   UNL     1      18.516 -20.948   1.594  1.00  0.00    +0.046 C 
ATOM     19  H   UNL     1      14.361 -17.671   1.441  1.00  0.00    +0.168 HD
ENDBRANCH   1   2
BRANCH   1  20
ATOM     20  C   UNL     1      17.297 -23.293   4.328  1.00  0.00    +0.105 C 
BRANCH  20  21
ATOM     21  C   UNL     1      18.058 -24.247   3.423  1.00  0.00    +0.222 C 
ATOM     22  O   UNL     1      19.080 -24.825   3.792  1.00  0.00    -0.275 OA
ATOM     23  N   UNL     1      17.520 -24.446   2.170  1.00  0.00    -0.343 N 
ATOM     24  C   UNL     1      16.331 -23.821   1.612  1.00  0.00    +0.119 C 
ATOM     25  C   UNL     1      18.134 -25.360   1.222  1.00  0.00    +0.119 C 
ATOM     26  C   UNL     1      16.367 -24.192   0.135  1.00  0.00    +0.023 C 
ATOM     27  C   UNL     1      17.083 -25.536   0.136  1.00  0.00    +0.023 C 
ENDBRANCH  20  21
ENDBRANCH   1  20
TORSDOF 3
ENDMDL
MODEL 2
REMARK VINA RESULT:    -8.938      1.008      1.287
REMARK INTER + INTRA:         -11.310
REMARK INTER:                 -10.990
REMARK INTRA:                  -0.320
REMARK UNBOUND:                -0.804
REMARK SMILES Cc1c(CCC(=O)N2CCCC2)c(=O)n2c([nH]c3ccccc32)c1C#N
REMARK SMILES IDX 4 1 3 2 2 3 24 4 13 5 16 6 25 7 14 8 15 9 17 10 26 11 23 12
REMARK SMILES IDX 18 13 22 14 19 15 21 16 20 17 1 18 5 20 6 21 7 22 8 23 9 24
REMARK SMILES IDX 12 25 10 26 11 27
REMARK H PARENT 17 19
ROOT
ATOM      1  C   UNL     1      18.037 -22.323   3.738  1.00  0.00    +0.051 C 
ENDROOT
BRANCH   1   2
ATOM      2  C   UNL     1      17.276 -21.118   3.225  1.00  0.00    +0.023 C 
ATOM      3  C   UNL     1      17.403 -20.568   1.991  1.00  0.00    -0.021 C 
ATOM      4  C   UNL     1      16.558 -19.429   1.592  1.00  0.00    +0.097 C 
ATOM      5  C   UNL     1      16.276 -20.548   4.209  1.00  0.00    +0.260 C 
ATOM      6  C   UNL     1      15.678 -18.916   2.468  1.00  0.00    +0.136 C 
ATOM      7  C   UNL     1      16.660 -18.857   0.288  1.00  0.00    +0.103 C 
ATOM      8  O   UNL     1      16.172 -21.036   5.331  1.00  0.00    -0.269 OA
ATOM      9  N   UNL     1      15.546 -19.483   3.735  1.00  0.00    -0.259 N 
ATOM     10  N   UNL     1      14.792 -17.851   2.329  1.00  0.00    -0.338 N 
ATOM     11  N   UNL     1      16.729 -18.395  -0.775  1.00  0.00    -0.192 NA
ATOM     12  C   UNL     1      14.497 -18.809   4.399  1.00  0.00    +0.074 A 
ATOM     13  C   UNL     1      14.003 -17.844   3.492  1.00  0.00    +0.064 A 
ATOM     14  C   UNL     1      13.946 -18.981   5.651  1.00  0.00    +0.029 A 
ATOM     15  C   UNL     1      12.974 -16.998   3.839  1.00  0.00    +0.028 A 
ATOM     16  C   UNL     1      12.884 -18.141   6.002  1.00  0.00    +0.002 A 
ATOM     17  C   UNL     1      12.406 -17.160   5.108  1.00  0.00    +0.002 A 
ATOM     18  C   UNL     1      18.404 -21.050   0.965  1.00  0.00    +0.046 C 
ATOM     19  H   UNL     1      14.393 -17.626   1.428  1.00  0.00    +0.168 HD
ENDBRANCH   1   2
BRANCH   1  20
ATOM     20  C   UNL     1      17.650 -23.602   2.994  1.00  0.00    +0.105 C 
BRANCH  20  21
ATOM     21  C   UNL     1      18.866 -24.308   2.421  1.00  0.00    +0.222 C 
ATOM     22  O   UNL     1      20.004 -23.859   2.550  1.00  0.00    -0.275 OA
ATOM     23  N   UNL     1      18.621 -25.498   1.771  1.00  0.00    -0.343 N 
ATOM     24  C   UNL     1      17.330 -26.129   1.544  1.00  0.00    +0.119 C 
ATOM     25  C   UNL     1      19.703 -26.287   1.208  1.00  0.00    +0.119 C 
ATOM     26  C   UNL     1      17.626 -27.253   0.558  1.00  0.00    +0.023 C 
ATOM     27  C   UNL     1      19.064 -27.631   0.892  1.00  0.00    +0.023 C 
ENDBRANCH  20  21
ENDBRANCH   1  20
TORSDOF 3
ENDMDL
MODEL 3
REMARK VINA RESULT:    -8.912      2.125      2.760
REMARK INTER + INTRA:         -11.279
REMARK INTER:                 -10.906
REMARK INTRA:                  -0.373
REMARK UNBOUND:                -0.804
REMARK SMILES Cc1c(CCC(=O)N2CCCC2)c(=O)n2c([nH]c3ccccc32)c1C#N
REMARK SMILES IDX 4 1 3 2 2 3 24 4 13 5 16 6 25 7 14 8 15 9 17 10 26 11 23 12
REMARK SMILES IDX 18 13 22 14 19 15 21 16 20 17 1 18 5 20 6 21 7 22 8 23 9 24
REMARK SMILES IDX 12 25 10 26 11 27
REMARK H PARENT 17 19
ROOT
ATOM      1  C   UNL     1      17.438 -23.099   3.148  1.00  0.00    +0.051 C 
ENDROOT
BRANCH   1   2
ATOM      2  C   UNL     1      16.905 -21.713   2.847  1.00  0.00    +0.023 C 
ATOM      3  C   UNL     1      17.145 -21.001   1.718  1.00  0.00    -0.021 C 
ATOM      4  C   UNL     1      16.516 -19.684   1.519  1.00  0.00    +0.097 C 
ATOM      5  C   UNL     1      16.003 -21.146   3.923  1.00  0.00    +0.260 C 
ATOM      6  C   UNL     1      15.724 -19.174   2.478  1.00  0.00    +0.136 C 
ATOM      7  C   UNL     1      16.736 -18.934   0.324  1.00  0.00    +0.103 C 
ATOM      8  O   UNL     1      15.798 -21.784   4.952  1.00  0.00    -0.269 OA
ATOM      9  N   UNL     1      15.476 -19.908   3.637  1.00  0.00    -0.259 N 
ATOM     10  N   UNL     1      15.038 -17.964   2.524  1.00  0.00    -0.338 N 
ATOM     11  N   UNL     1      16.901 -18.325  -0.650  1.00  0.00    -0.192 NA
ATOM     12  C   UNL     1      14.548 -19.179   4.415  1.00  0.00    +0.074 A 
ATOM     13  C   UNL     1      14.243 -18.010   3.683  1.00  0.00    +0.064 A 
ATOM     14  C   UNL     1      13.956 -19.454   5.630  1.00  0.00    +0.029 A 
ATOM     15  C   UNL     1      13.370 -17.065   4.175  1.00  0.00    +0.028 A 
ATOM     16  C   UNL     1      13.050 -18.511   6.125  1.00  0.00    +0.002 A 
ATOM     17  C   UNL     1      12.763 -17.331   5.408  1.00  0.00    +0.002 A 
ATOM     18  C   UNL     1      18.064 -21.476   0.614  1.00  0.00    +0.046 C 
ATOM     19  H   UNL     1      14.698 -17.531   1.677  1.00  0.00    +0.168 HD
ENDBRANCH   1   2
BRANCH   1  20
ATOM     20  C   UNL     1      18.932 -23.078   3.474  1.00  0.00    +0.105 C 
BRANCH  20  21
ATOM     21  C   UNL     1      19.695 -24.123   2.679  1.00  0.00    +0.222 C 
ATOM     22  O   UNL     1      19.213 -24.672   1.689  1.00  0.00    -0.275 OA
ATOM     23  N   UNL     1      20.971 -24.401   3.118  1.00  0.00    -0.343 N 
ATOM     24  C   UNL     1      21.648 -23.833   4.273  1.00  0.00    +0.119 C 
ATOM     25  C   UNL     1      21.816 -25.358   2.425  1.00  0.00    +0.119 C 
ATOM     26  C   UNL     1      22.900 -24.687   4.436  1.00  0.00    +0.023 C 
ATOM     27  C   UNL     1      23.202 -25.128   3.009  1.00  0.00    +0.023 C 
ENDBRANCH  20  21
ENDBRANCH   1  20
TORSDOF 3
ENDMDL
MODEL 4
REMARK VINA RESULT:    -8.824      2.467      3.910
REMARK INTER + INTRA:         -11.176
REMARK INTER:                 -10.546
REMARK INTRA:                  -0.630
REMARK UNBOUND:                -0.804
REMARK SMILES Cc1c(CCC(=O)N2CCCC2)c(=O)n2c([nH]c3ccccc32)c1C#N
REMARK SMILES IDX 4 1 3 2 2 3 24 4 13 5 16 6 25 7 14 8 15 9 17 10 26 11 23 12
REMARK SMILES IDX 18 13 22 14 19 15 21 16 20 17 1 18 5 20 6 21 7 22 8 23 9 24
REMARK SMILES IDX 12 25 10 26 11 27
REMARK H PARENT 17 19
ROOT
ATOM      1  C   UNL     1      18.385 -21.368   2.398  1.00  0.00    +0.051 C 
ENDROOT
BRANCH   1   2
ATOM      2  C   UNL     1      17.210 -21.134   3.326  1.00  0.00    +0.023 C 
ATOM      3  C   UNL     1      16.927 -21.853   4.441  1.00  0.00    -0.021 C 
ATOM      4  C   UNL     1      15.784 -21.486   5.295  1.00  0.00    +0.097 C 
ATOM      5  C   UNL     1      16.336 -19.959   2.939  1.00  0.00    +0.260 C 
ATOM      6  C   UNL     1      15.002 -20.449   4.948  1.00  0.00    +0.136 C 
ATOM      7  C   UNL     1      15.490 -22.214   6.487  1.00  0.00    +0.103 C 
ATOM      8  O   UNL     1      16.583 -19.319   1.922  1.00  0.00    -0.269 OA
ATOM      9  N   UNL     1      15.295 -19.710   3.803  1.00  0.00    -0.259 N 
ATOM     10  N   UNL     1      13.876 -19.926   5.577  1.00  0.00    -0.338 N 
ATOM     11  N   UNL     1      15.252 -22.794   7.464  1.00  0.00    -0.192 NA
ATOM     12  C   UNL     1      14.374 -18.640   3.737  1.00  0.00    +0.074 A 
ATOM     13  C   UNL     1      13.544 -18.754   4.874  1.00  0.00    +0.064 A 
ATOM     14  C   UNL     1      14.230 -17.611   2.830  1.00  0.00    +0.029 A 
ATOM     15  C   UNL     1      12.519 -17.865   5.104  1.00  0.00    +0.028 A 
ATOM     16  C   UNL     1      13.207 -16.688   3.070  1.00  0.00    +0.002 A 
ATOM     17  C   UNL     1      12.360 -16.815   4.191  1.00  0.00    +0.002 A 
ATOM     18  C   UNL     1      17.723 -23.063   4.875  1.00  0.00    +0.046 C 
ATOM     19  H   UNL     1      13.776 -19.975   6.582  1.00  0.00    +0.168 HD
ENDBRANCH   1   2
BRANCH   1  20
ATOM     20  C   UNL     1      18.034 -22.333   1.265  1.00  0.00    +0.105 C 
BRANCH  20  21
ATOM     21  C   UNL     1      18.141 -21.664  -0.095  1.00  0.00    +0.222 C 
ATOM     22  O   UNL     1      19.157 -21.072  -0.454  1.00  0.00    -0.275 OA
ATOM     23  N   UNL     1      17.039 -21.783  -0.913  1.00  0.00    -0.343 N 
ATOM     24  C   UNL     1      15.780 -22.445  -0.605  1.00  0.00    +0.119 C 
ATOM     25  C   UNL     1      17.027 -21.217  -2.250  1.00  0.00    +0.119 C 
ATOM     26  C   UNL     1      14.850 -22.036  -1.740  1.00  0.00    +0.023 C 
ATOM     27  C   UNL     1      15.805 -21.838  -2.911  1.00  0.00    +0.023 C 
ENDBRANCH  20  21
ENDBRANCH   1  20
TORSDOF 3
ENDMDL
MODEL 5
REMARK VINA RESULT:    -8.689      2.967      4.234
REMARK INTER + INTRA:         -11.017
REMARK INTER:                 -10.826
REMARK INTRA:                  -0.191
REMARK UNBOUND:                -0.804
REMARK SMILES Cc1c(CCC(=O)N2CCCC2)c(=O)n2c([nH]c3ccccc32)c1C#N
REMARK SMILES IDX 4 1 3 2 2 3 24 4 13 5 16 6 25 7 14 8 15 9 17 10 26 11 23 12
REMARK SMILES IDX 18 13 22 14 19 15 21 16 20 17 1 18 5 20 6 21 7 22 8 23 9 24
REMARK SMILES IDX 12 25 10 26 11 27
REMARK H PARENT 17 19
ROOT
ATOM      1  C   UNL     1      17.456 -19.593   0.309  1.00  0.00    +0.051 C 
ENDROOT
BRANCH   1   2
ATOM      2  C   UNL     1      16.805 -19.881   1.646  1.00  0.00    +0.023 C 
ATOM      3  C   UNL     1      17.145 -20.887   2.491  1.00  0.00    -0.021 C 
ATOM      4  C   UNL     1      16.473 -21.024   3.795  1.00  0.00    +0.097 C 
ATOM      5  C   UNL     1      15.715 -18.903   2.032  1.00  0.00    +0.260 C 
ATOM      6  C   UNL     1      15.498 -20.163   4.134  1.00  0.00    +0.136 C 
ATOM      7  C   UNL     1      16.839 -22.059   4.708  1.00  0.00    +0.103 C 
ATOM      8  O   UNL     1      15.397 -18.003   1.260  1.00  0.00    -0.269 OA
ATOM      9  N   UNL     1      15.152 -19.128   3.266  1.00  0.00    -0.259 N 
ATOM     10  N   UNL     1      14.722 -20.097   5.288  1.00  0.00    -0.338 N 
ATOM     11  N   UNL     1      17.139 -22.892   5.459  1.00  0.00    -0.192 NA
ATOM     12  C   UNL     1      14.177 -18.335   3.913  1.00  0.00    +0.074 A 
ATOM     13  C   UNL     1      13.969 -18.914   5.185  1.00  0.00    +0.064 A 
ATOM     14  C   UNL     1      13.516 -17.192   3.515  1.00  0.00    +0.029 A 
ATOM     15  C   UNL     1      13.057 -18.386   6.070  1.00  0.00    +0.028 A 
ATOM     16  C   UNL     1      12.606 -16.635   4.419  1.00  0.00    +0.002 A 
ATOM     17  C   UNL     1      12.377 -17.226   5.679  1.00  0.00    +0.002 A 
ATOM     18  C   UNL     1      18.193 -21.928   2.166  1.00  0.00    +0.046 C 
ATOM     19  H   UNL     1      15.092 -20.402   6.177  1.00  0.00    +0.168 HD
ENDBRANCH   1   2
BRANCH   1  20
ATOM     20  C   UNL     1      17.082 -20.637  -0.744  1.00  0.00    +0.105 C 
BRANCH  20  21
ATOM     21  C   UNL     1      18.054 -20.630  -1.911  1.00  0.00    +0.222 C 
ATOM     22  O   UNL     1      18.008 -19.777  -2.796  1.00  0.00    -0.275 OA
ATOM     23  N   UNL     1      19.009 -21.623  -1.905  1.00  0.00    -0.343 N 
ATOM     24  C   UNL     1      19.165 -22.691  -0.929  1.00  0.00    +0.119 C 
ATOM     25  C   UNL     1      20.019 -21.707  -2.947  1.00  0.00    +0.119 C 
ATOM     26  C   UNL     1      20.184 -23.633  -1.557  1.00  0.00    +0.023 C 
ATOM     27  C   UNL     1      21.038 -22.698  -2.405  1.00  0.00    +0.023 C 
ENDBRANCH  20  21
ENDBRANCH   1  20
TORSDOF 3
ENDMDL
MODEL 6
REMARK VINA RESULT:    -8.591      2.805      6.391
REMARK INTER + INTRA:         -10.902
REMARK INTER:                 -10.348
REMARK INTRA:                  -0.554
REMARK UNBOUND:                -0.804
REMARK SMILES Cc1c(CCC(=O)N2CCCC2)c(=O)n2c([nH]c3ccccc32)c1C#N
REMARK SMILES IDX 4 1 3 2 2 3 24 4 13 5 16 6 25 7 14 8 15 9 17 10 26 11 23 12
REMARK SMILES IDX 18 13 22 14 19 15 21 16 20 17 1 18 5 20 6 21 7 22 8 23 9 24
REMARK SMILES IDX 12 25 10 26 11 27
REMARK H PARENT 17 19
ROOT
ATOM      1  C   UNL     1      16.297 -18.603   1.635  1.00  0.00    +0.051 C 
ENDROOT
BRANCH   1   2
ATOM      2  C   UNL     1      16.583 -19.728   2.608  1.00  0.00    +0.023 C 
ATOM      3  C   UNL     1      15.811 -20.072   3.669  1.00  0.00    -0.021 C 
ATOM      4  C   UNL     1      16.168 -21.229   4.508  1.00  0.00    +0.097 C 
ATOM      5  C   UNL     1      17.833 -20.523   2.291  1.00  0.00    +0.260 C 
ATOM      6  C   UNL     1      17.283 -21.929   4.234  1.00  0.00    +0.136 C 
ATOM      7  C   UNL     1      15.352 -21.621   5.611  1.00  0.00    +0.103 C 
ATOM      8  O   UNL     1      18.539 -20.202   1.339  1.00  0.00    -0.269 OA
ATOM      9  N   UNL     1      18.074 -21.577   3.141  1.00  0.00    -0.259 N 
ATOM     10  N   UNL     1      17.827 -23.037   4.878  1.00  0.00    -0.338 N 
ATOM     11  N   UNL     1      14.686 -21.952   6.503  1.00  0.00    -0.192 NA
ATOM     12  C   UNL     1      19.113 -22.529   3.040  1.00  0.00    +0.074 A 
ATOM     13  C   UNL     1      18.909 -23.458   4.085  1.00  0.00    +0.064 A 
ATOM     14  C   UNL     1      20.149 -22.662   2.139  1.00  0.00    +0.029 A 
ATOM     15  C   UNL     1      19.767 -24.517   4.279  1.00  0.00    +0.028 A 
ATOM     16  C   UNL     1      21.010 -23.749   2.314  1.00  0.00    +0.002 A 
ATOM     17  C   UNL     1      20.824 -24.663   3.372  1.00  0.00    +0.002 A 
ATOM     18  C   UNL     1      14.572 -19.307   4.079  1.00  0.00    +0.046 C 
ATOM     19  H   UNL     1      17.231 -23.707   5.343  1.00  0.00    +0.168 HD
ENDBRANCH   1   2
BRANCH   1  20
ATOM     20  C   UNL     1      15.570 -19.100   0.385  1.00  0.00    +0.105 C 
BRANCH  20  21
ATOM     21  C   UNL     1      16.508 -19.207  -0.805  1.00  0.00    +0.222 C 
ATOM     22  O   UNL     1      17.072 -18.224  -1.283  1.00  0.00    -0.275 OA
ATOM     23  N   UNL     1      16.709 -20.476  -1.301  1.00  0.00    -0.343 N 
ATOM     24  C   UNL     1      16.098 -21.712  -0.835  1.00  0.00    +0.119 C 
ATOM     25  C   UNL     1      17.609 -20.718  -2.415  1.00  0.00    +0.119 C 
ATOM     26  C   UNL     1      16.462 -22.739  -1.900  1.00  0.00    +0.023 C 
ATOM     27  C   UNL     1      17.796 -22.227  -2.428  1.00  0.00    +0.023 C 
ENDBRANCH  20  21
ENDBRANCH   1  20
TORSDOF 3
ENDMDL
MODEL 7
REMARK VINA RESULT:    -8.510      1.885      3.324
REMARK INTER + INTRA:         -10.807
REMARK INTER:                 -10.235
REMARK INTRA:                  -0.572
REMARK UNBOUND:                -0.804
REMARK SMILES Cc1c(CCC(=O)N2CCCC2)c(=O)n2c([nH]c3ccccc32)c1C#N
REMARK SMILES IDX 4 1 3 2 2 3 24 4 13 5 16 6 25 7 14 8 15 9 17 10 26 11 23 12
REMARK SMILES IDX 18 13 22 14 19 15 21 16 20 17 1 18 5 20 6 21 7 22 8 23 9 24
REMARK SMILES IDX 12 25 10 26 11 27
REMARK H PARENT 17 19
ROOT
ATOM      1  C   UNL     1      18.224 -20.870   2.014  1.00  0.00    +0.051 C 
ENDROOT
BRANCH   1   2
ATOM      2  C   UNL     1      17.124 -20.756   3.049  1.00  0.00    +0.023 C 
ATOM      3  C   UNL     1      16.986 -21.542   4.147  1.00  0.00    -0.021 C 
ATOM      4  C   UNL     1      15.903 -21.290   5.114  1.00  0.00    +0.097 C 
ATOM      5  C   UNL     1      16.149 -19.625   2.800  1.00  0.00    +0.260 C 
ATOM      6  C   UNL     1      15.031 -20.292   4.888  1.00  0.00    +0.136 C 
ATOM      7  C   UNL     1      15.762 -22.089   6.288  1.00  0.00    +0.103 C 
ATOM      8  O   UNL     1      16.264 -18.924   1.799  1.00  0.00    -0.269 OA
ATOM      9  N   UNL     1      15.175 -19.484   3.761  1.00  0.00    -0.259 N 
ATOM     10  N   UNL     1      13.936 -19.873   5.638  1.00  0.00    -0.338 N 
ATOM     11  N   UNL     1      15.648 -22.727   7.250  1.00  0.00    -0.192 NA
ATOM     12  C   UNL     1      14.188 -18.475   3.829  1.00  0.00    +0.074 A 
ATOM     13  C   UNL     1      13.471 -18.695   5.026  1.00  0.00    +0.064 A 
ATOM     14  C   UNL     1      13.901 -17.417   2.992  1.00  0.00    +0.029 A 
ATOM     15  C   UNL     1      12.418 -17.886   5.389  1.00  0.00    +0.028 A 
ATOM     16  C   UNL     1      12.848 -16.576   3.366  1.00  0.00    +0.002 A 
ATOM     17  C   UNL     1      12.114 -16.809   4.547  1.00  0.00    +0.002 A 
ATOM     18  C   UNL     1      17.891 -22.716   4.449  1.00  0.00    +0.046 C 
ATOM     19  H   UNL     1      13.929 -19.974   6.643  1.00  0.00    +0.168 HD
ENDBRANCH   1   2
BRANCH   1  20
ATOM     20  C   UNL     1      17.870 -21.871   0.912  1.00  0.00    +0.105 C 
BRANCH  20  21
ATOM     21  C   UNL     1      18.943 -22.934   0.754  1.00  0.00    +0.222 C 
ATOM     22  O   UNL     1      20.134 -22.649   0.640  1.00  0.00    -0.275 OA
ATOM     23  N   UNL     1      18.504 -24.240   0.773  1.00  0.00    -0.343 N 
ATOM     24  C   UNL     1      17.131 -24.706   0.891  1.00  0.00    +0.119 C 
ATOM     25  C   UNL     1      19.434 -25.350   0.665  1.00  0.00    +0.119 C 
ATOM     26  C   UNL     1      17.210 -26.197   0.583  1.00  0.00    +0.023 C 
ATOM     27  C   UNL     1      18.611 -26.570   1.052  1.00  0.00    +0.023 C 
ENDBRANCH  20  21
ENDBRANCH   1  20
TORSDOF 3
ENDMDL
MODEL 8
REMARK VINA RESULT:    -8.501      3.578      4.881
REMARK INTER + INTRA:         -10.796
REMARK INTER:                 -10.481
REMARK INTRA:                  -0.315
REMARK UNBOUND:                -0.804
REMARK SMILES Cc1c(CCC(=O)N2CCCC2)c(=O)n2c([nH]c3ccccc32)c1C#N
REMARK SMILES IDX 4 1 3 2 2 3 24 4 13 5 16 6 25 7 14 8 15 9 17 10 26 11 23 12
REMARK SMILES IDX 18 13 22 14 19 15 21 16 20 17 1 18 5 20 6 21 7 22 8 23 9 24
REMARK SMILES IDX 12 25 10 26 11 27
REMARK H PARENT 17 19
ROOT
ATOM      1  C   UNL     1      18.880 -21.218  -0.382  1.00  0.00    +0.051 C 
ENDROOT
BRANCH   1   2
ATOM      2  C   UNL     1      17.962 -20.515   0.597  1.00  0.00    +0.023 C 
ATOM      3  C   UNL     1      17.299 -19.354   0.367  1.00  0.00    -0.021 C 
ATOM      4  C   UNL     1      16.386 -18.803   1.383  1.00  0.00    +0.097 C 
ATOM      5  C   UNL     1      17.781 -21.243   1.913  1.00  0.00    +0.260 C 
ATOM      6  C   UNL     1      16.232 -19.442   2.555  1.00  0.00    +0.136 C 
ATOM      7  C   UNL     1      15.659 -17.597   1.146  1.00  0.00    +0.103 C 
ATOM      8  O   UNL     1      18.393 -22.286   2.127  1.00  0.00    -0.269 OA
ATOM      9  N   UNL     1      16.912 -20.637   2.790  1.00  0.00    -0.259 N 
ATOM     10  N   UNL     1      15.447 -19.117   3.658  1.00  0.00    -0.338 N 
ATOM     11  N   UNL     1      15.057 -16.624   0.954  1.00  0.00    -0.192 NA
ATOM     12  C   UNL     1      16.494 -21.128   4.048  1.00  0.00    +0.074 A 
ATOM     13  C   UNL     1      15.544 -20.206   4.542  1.00  0.00    +0.064 A 
ATOM     14  C   UNL     1      16.834 -22.268   4.745  1.00  0.00    +0.029 A 
ATOM     15  C   UNL     1      14.946 -20.384   5.769  1.00  0.00    +0.028 A 
ATOM     16  C   UNL     1      16.213 -22.468   5.981  1.00  0.00    +0.002 A 
ATOM     17  C   UNL     1      15.283 -21.537   6.488  1.00  0.00    +0.002 A 
ATOM     18  C   UNL     1      17.455 -18.545  -0.901  1.00  0.00    +0.046 C 
ATOM     19  H   UNL     1      14.577 -18.617   3.542  1.00  0.00    +0.168 HD
ENDBRANCH   1   2
BRANCH   1  20
ATOM     20  C   UNL     1      18.102 -21.874  -1.524  1.00  0.00    +0.105 C 
BRANCH  20  21
ATOM     21  C   UNL     1      18.649 -21.466  -2.881  1.00  0.00    +0.222 C 
ATOM     22  O   UNL     1      18.235 -20.475  -3.482  1.00  0.00    -0.275 OA
ATOM     23  N   UNL     1      19.655 -22.259  -3.388  1.00  0.00    -0.343 N 
ATOM     24  C   UNL     1      20.223 -23.455  -2.786  1.00  0.00    +0.119 C 
ATOM     25  C   UNL     1      20.285 -21.956  -4.662  1.00  0.00    +0.119 C 
ATOM     26  C   UNL     1      21.084 -24.061  -3.887  1.00  0.00    +0.023 C 
ATOM     27  C   UNL     1      21.521 -22.842  -4.690  1.00  0.00    +0.023 C 
ENDBRANCH  20  21
ENDBRANCH   1  20
TORSDOF 3
ENDMDL
MODEL 9
REMARK VINA RESULT:    -8.495      2.341      6.937
REMARK INTER + INTRA:         -10.789
REMARK INTER:                 -10.824
REMARK INTRA:                   0.034
REMARK UNBOUND:                -0.804
REMARK SMILES Cc1c(CCC(=O)N2CCCC2)c(=O)n2c([nH]c3ccccc32)c1C#N
REMARK SMILES IDX 4 1 3 2 2 3 24 4 13 5 16 6 25 7 14 8 15 9 17 10 26 11 23 12
REMARK SMILES IDX 18 13 22 14 19 15 21 16 20 17 1 18 5 20 6 21 7 22 8 23 9 24
REMARK SMILES IDX 12 25 10 26 11 27
REMARK H PARENT 17 19
ROOT
ATOM      1  C   UNL     1      16.266 -18.195   1.147  1.00  0.00    +0.051 C 
ENDROOT
BRANCH   1   2
ATOM      2  C   UNL     1      17.146 -19.391   0.846  1.00  0.00    +0.023 C 
ATOM      3  C   UNL     1      17.691 -19.689  -0.360  1.00  0.00    -0.021 C 
ATOM      4  C   UNL     1      18.582 -20.852  -0.509  1.00  0.00    +0.097 C 
ATOM      5  C   UNL     1      17.435 -20.268   2.046  1.00  0.00    +0.260 C 
ATOM      6  C   UNL     1      18.831 -21.638   0.553  1.00  0.00    +0.136 C 
ATOM      7  C   UNL     1      19.186 -21.164  -1.765  1.00  0.00    +0.103 C 
ATOM      8  O   UNL     1      16.929 -20.007   3.134  1.00  0.00    -0.269 OA
ATOM      9  N   UNL     1      18.273 -21.330   1.792  1.00  0.00    -0.259 N 
ATOM     10  N   UNL     1      19.618 -22.782   0.656  1.00  0.00    -0.338 N 
ATOM     11  N   UNL     1      19.689 -21.415  -2.780  1.00  0.00    -0.192 NA
ATOM     12  C   UNL     1      18.773 -22.259   2.731  1.00  0.00    +0.074 A 
ATOM     13  C   UNL     1      19.650 -23.111   2.023  1.00  0.00    +0.064 A 
ATOM     14  C   UNL     1      18.562 -22.396   4.087  1.00  0.00    +0.029 A 
ATOM     15  C   UNL     1      20.301 -24.150   2.650  1.00  0.00    +0.028 A 
ATOM     16  C   UNL     1      19.239 -23.433   4.736  1.00  0.00    +0.002 A 
ATOM     17  C   UNL     1      20.095 -24.301   4.027  1.00  0.00    +0.002 A 
ATOM     18  C   UNL     1      17.421 -18.889  -1.615  1.00  0.00    +0.046 C 
ATOM     19  H   UNL     1      20.434 -22.901   0.073  1.00  0.00    +0.168 HD
ENDBRANCH   1   2
BRANCH   1  20
ATOM     20  C   UNL     1      14.905 -18.613   1.706  1.00  0.00    +0.105 C 
BRANCH  20  21
ATOM     21  C   UNL     1      14.273 -17.506   2.531  1.00  0.00    +0.222 C 
ATOM     22  O   UNL     1      14.061 -16.386   2.070  1.00  0.00    -0.275 OA
ATOM     23  N   UNL     1      13.927 -17.840   3.822  1.00  0.00    -0.343 N 
ATOM     24  C   UNL     1      14.131 -19.118   4.487  1.00  0.00    +0.119 C 
ATOM     25  C   UNL     1      13.284 -16.881   4.704  1.00  0.00    +0.119 C 
ATOM     26  C   UNL     1      13.817 -18.837   5.951  1.00  0.00    +0.023 C 
ATOM     27  C   UNL     1      12.787 -17.718   5.872  1.00  0.00    +0.023 C 
ENDBRANCH  20  21
ENDBRANCH   1  20
TORSDOF 3
ENDMDL
