MODEL 1
REMARK VINA RESULT:    -8.754      0.000      0.000
REMARK INTER + INTRA:         -12.575
REMARK INTER:                 -11.568
REMARK INTRA:                  -1.007
REMARK UNBOUND:                -1.007
REMARK SMILES Cc1ccc(C(=O)CN2C(=O)NC(C)(c3ccc(S(N)(=O)=O)cc3)C2=O)cc1
REMARK SMILES IDX 9 1 10 2 11 3 12 4 13 5 14 6 25 7 26 8 8 10 6 11 7 12 5 13
REMARK SMILES IDX 2 14 3 15 28 16 4 17 27 18 1 19 15 20 16 21 24 22 17 23
REMARK SMILES IDX 23 24 18 25 19 26 21 27 22 28 20 29
REMARK H PARENT 12 9 20 30 20 31
ROOT
ATOM      1  N   UNL     1      16.704 -20.044  -0.890  1.00  0.00    -0.254 N 
ATOM      2  C   UNL     1      17.786 -19.389  -1.383  1.00  0.00    +0.325 C 
ATOM      3  O   UNL     1      17.906 -18.188  -1.557  1.00  0.00    -0.248 OA
ATOM      4  N   UNL     1      18.759 -20.310  -1.682  1.00  0.00    -0.319 N 
ATOM      5  C   UNL     1      18.397 -21.656  -1.284  1.00  0.00    +0.144 C 
ATOM      6  C   UNL     1      18.397 -22.563  -2.515  1.00  0.00    +0.051 C 
ATOM      7  C   UNL     1      16.945 -21.388  -0.815  1.00  0.00    +0.261 C 
ATOM      8  O   UNL     1      16.142 -22.237  -0.443  1.00  0.00    -0.271 OA
ATOM      9  H   UNL     1      19.668 -20.019  -2.015  1.00  0.00    +0.166 HD
ENDROOT
BRANCH   1  10
ATOM     10  C   UNL     1      15.510 -19.395  -0.398  1.00  0.00    +0.211 C 
BRANCH  10  11
ATOM     11  C   UNL     1      15.853 -18.598   0.857  1.00  0.00    +0.182 C 
ATOM     12  O   UNL     1      16.179 -17.410   0.823  1.00  0.00    -0.292 OA
BRANCH  11  13
ATOM     13  C   UNL     1      15.799 -19.301   2.176  1.00  0.00    +0.019 A 
ATOM     14  C   UNL     1      15.613 -20.563   4.686  1.00  0.00    -0.051 A 
ATOM     15  C   UNL     1      16.548 -20.996   3.740  1.00  0.00    +0.004 A 
ATOM     16  C   UNL     1      14.784 -19.480   4.377  1.00  0.00    +0.004 A 
ATOM     17  C   UNL     1      16.640 -20.374   2.490  1.00  0.00    +0.012 A 
ATOM     18  C   UNL     1      14.874 -18.856   3.129  1.00  0.00    +0.012 A 
ATOM     19  C   UNL     1      15.540 -21.212   6.037  1.00  0.00    +0.044 C 
ENDBRANCH  11  13
ENDBRANCH  10  11
ENDBRANCH   1  10
BRANCH   5  20
ATOM     20  C   UNL     1      19.252 -22.193  -0.133  1.00  0.00    -0.013 A 
ATOM     21  C   UNL     1      19.761 -23.506  -0.191  1.00  0.00    +0.008 A 
ATOM     22  C   UNL     1      19.527 -21.431   1.018  1.00  0.00    +0.008 A 
ATOM     23  C   UNL     1      20.522 -24.036   0.855  1.00  0.00    +0.022 A 
ATOM     24  C   UNL     1      20.287 -21.954   2.068  1.00  0.00    +0.022 A 
ATOM     25  C   UNL     1      20.770 -23.258   1.984  1.00  0.00    +0.082 A 
BRANCH  25  26
ATOM     26  S   UNL     1      21.714 -23.939   3.319  1.00  0.00    +0.238 S 
ATOM     27  O   UNL     1      21.562 -25.375   3.302  1.00  0.00    -0.207 OA
ATOM     28  O   UNL     1      23.008 -23.296   3.344  1.00  0.00    -0.207 OA
BRANCH  26  29
ATOM     29  N   UNL     1      20.882 -23.341   4.656  1.00  0.00    -0.225 NA
ATOM     30  H   UNL     1      21.316 -22.507   5.056  1.00  0.00    +0.137 HD
ATOM     31  H   UNL     1      20.790 -24.086   5.348  1.00  0.00    +0.137 HD
ENDBRANCH  26  29
ENDBRANCH  25  26
ENDBRANCH   5  20
TORSDOF 6
ENDMDL
MODEL 2
REMARK VINA RESULT:    -8.695      1.387      2.204
REMARK INTER + INTRA:         -12.497
REMARK INTER:                 -11.859
REMARK INTRA:                  -0.638
REMARK UNBOUND:                -1.007
REMARK SMILES Cc1ccc(C(=O)CN2C(=O)NC(C)(c3ccc(S(N)(=O)=O)cc3)C2=O)cc1
REMARK SMILES IDX 9 1 10 2 11 3 12 4 13 5 14 6 25 7 26 8 8 10 6 11 7 12 5 13
REMARK SMILES IDX 2 14 3 15 28 16 4 17 27 18 1 19 15 20 16 21 24 22 17 23
REMARK SMILES IDX 23 24 18 25 19 26 21 27 22 28 20 29
REMARK H PARENT 12 9 20 30 20 31
ROOT
ATOM      1  N   UNL     1      16.868 -19.910  -0.606  1.00  0.00    -0.254 N 
ATOM      2  C   UNL     1      17.836 -19.241  -1.284  1.00  0.00    +0.325 C 
ATOM      3  O   UNL     1      17.894 -18.042  -1.496  1.00  0.00    -0.248 OA
ATOM      4  N   UNL     1      18.770 -20.145  -1.725  1.00  0.00    -0.319 N 
ATOM      5  C   UNL     1      18.515 -21.490  -1.248  1.00  0.00    +0.144 C 
ATOM      6  C   UNL     1      18.335 -22.423  -2.447  1.00  0.00    +0.051 C 
ATOM      7  C   UNL     1      17.154 -21.246  -0.550  1.00  0.00    +0.261 C 
ATOM      8  O   UNL     1      16.446 -22.105  -0.035  1.00  0.00    -0.271 OA
ATOM      9  H   UNL     1      19.603 -19.840  -2.209  1.00  0.00    +0.166 HD
ENDROOT
BRANCH   1  10
ATOM     10  C   UNL     1      15.756 -19.278   0.065  1.00  0.00    +0.211 C 
BRANCH  10  11
ATOM     11  C   UNL     1      16.121 -19.042   1.528  1.00  0.00    +0.182 C 
ATOM     12  O   UNL     1      17.218 -19.347   1.998  1.00  0.00    -0.292 OA
BRANCH  11  13
ATOM     13  C   UNL     1      15.093 -18.425   2.422  1.00  0.00    +0.019 A 
ATOM     14  C   UNL     1      13.188 -17.330   4.183  1.00  0.00    -0.051 A 
ATOM     15  C   UNL     1      13.372 -16.786   2.907  1.00  0.00    +0.004 A 
ATOM     16  C   UNL     1      13.949 -18.439   4.565  1.00  0.00    +0.004 A 
ATOM     17  C   UNL     1      14.321 -17.325   2.031  1.00  0.00    +0.012 A 
ATOM     18  C   UNL     1      14.897 -18.980   3.692  1.00  0.00    +0.012 A 
ATOM     19  C   UNL     1      12.146 -16.770   5.106  1.00  0.00    +0.044 C 
ENDBRANCH  11  13
ENDBRANCH  10  11
ENDBRANCH   1  10
BRANCH   5  20
ATOM     20  C   UNL     1      19.562 -21.983  -0.247  1.00  0.00    -0.013 A 
ATOM     21  C   UNL     1      19.506 -21.555   1.095  1.00  0.00    +0.008 A 
ATOM     22  C   UNL     1      20.619 -22.833  -0.623  1.00  0.00    +0.008 A 
ATOM     23  C   UNL     1      20.462 -21.965   2.028  1.00  0.00    +0.022 A 
ATOM     24  C   UNL     1      21.580 -23.248   0.305  1.00  0.00    +0.022 A 
ATOM     25  C   UNL     1      21.501 -22.801   1.623  1.00  0.00    +0.082 A 
BRANCH  25  26
ATOM     26  S   UNL     1      22.726 -23.300   2.801  1.00  0.00    +0.238 S 
ATOM     27  O   UNL     1      23.102 -24.665   2.521  1.00  0.00    -0.207 OA
ATOM     28  O   UNL     1      23.698 -22.238   2.933  1.00  0.00    -0.207 OA
BRANCH  26  29
ATOM     29  N   UNL     1      21.839 -23.284   4.233  1.00  0.00    -0.225 NA
ATOM     30  H   UNL     1      21.349 -22.402   4.390  1.00  0.00    +0.137 HD
ATOM     31  H   UNL     1      22.461 -23.513   5.009  1.00  0.00    +0.137 HD
ENDBRANCH  26  29
ENDBRANCH  25  26
ENDBRANCH   5  20
TORSDOF 6
ENDMDL
MODEL 3
REMARK VINA RESULT:    -8.329      3.024      6.131
REMARK INTER + INTRA:         -12.015
REMARK INTER:                 -10.196
REMARK INTRA:                  -1.819
REMARK UNBOUND:                -1.007
REMARK SMILES Cc1ccc(C(=O)CN2C(=O)NC(C)(c3ccc(S(N)(=O)=O)cc3)C2=O)cc1
REMARK SMILES IDX 9 1 10 2 11 3 12 4 13 5 14 6 25 7 26 8 8 10 6 11 7 12 5 13
REMARK SMILES IDX 2 14 3 15 28 16 4 17 27 18 1 19 15 20 16 21 24 22 17 23
REMARK SMILES IDX 23 24 18 25 19 26 21 27 22 28 20 29
REMARK H PARENT 12 9 20 30 20 31
ROOT
ATOM      1  N   UNL     1      19.974 -23.876   0.890  1.00  0.00    -0.254 N 
ATOM      2  C   UNL     1      20.904 -22.993   1.337  1.00  0.00    +0.325 C 
ATOM      3  O   UNL     1      21.839 -22.525   0.711  1.00  0.00    -0.248 OA
ATOM      4  N   UNL     1      20.639 -22.703   2.652  1.00  0.00    -0.319 N 
ATOM      5  C   UNL     1      19.411 -23.315   3.124  1.00  0.00    +0.144 C 
ATOM      6  C   UNL     1      19.728 -24.232   4.306  1.00  0.00    +0.051 C 
ATOM      7  C   UNL     1      19.063 -24.156   1.870  1.00  0.00    +0.261 C 
ATOM      8  O   UNL     1      18.130 -24.945   1.771  1.00  0.00    -0.271 OA
ATOM      9  H   UNL     1      21.188 -22.021   3.158  1.00  0.00    +0.166 HD
ENDROOT
BRANCH   1  10
ATOM     10  C   UNL     1      19.892 -24.355  -0.470  1.00  0.00    +0.211 C 
BRANCH  10  11
ATOM     11  C   UNL     1      19.788 -23.164  -1.417  1.00  0.00    +0.182 C 
ATOM     12  O   UNL     1      20.589 -22.969  -2.333  1.00  0.00    -0.292 OA
BRANCH  11  13
ATOM     13  C   UNL     1      18.671 -22.191  -1.209  1.00  0.00    +0.019 A 
ATOM     14  C   UNL     1      16.640 -20.280  -0.826  1.00  0.00    -0.051 A 
ATOM     15  C   UNL     1      16.328 -21.641  -0.912  1.00  0.00    +0.004 A 
ATOM     16  C   UNL     1      17.977 -19.881  -0.911  1.00  0.00    +0.004 A 
ATOM     17  C   UNL     1      17.334 -22.592  -1.107  1.00  0.00    +0.012 A 
ATOM     18  C   UNL     1      18.985 -20.830  -1.106  1.00  0.00    +0.012 A 
ATOM     19  C   UNL     1      15.560 -19.265  -0.583  1.00  0.00    +0.044 C 
ENDBRANCH  11  13
ENDBRANCH  10  11
ENDBRANCH   1  10
BRANCH   5  20
ATOM     20  C   UNL     1      18.308 -22.297   3.422  1.00  0.00    -0.013 A 
ATOM     21  C   UNL     1      17.685 -22.288   4.687  1.00  0.00    +0.008 A 
ATOM     22  C   UNL     1      17.855 -21.376   2.459  1.00  0.00    +0.008 A 
ATOM     23  C   UNL     1      16.656 -21.390   4.983  1.00  0.00    +0.022 A 
ATOM     24  C   UNL     1      16.825 -20.474   2.748  1.00  0.00    +0.022 A 
ATOM     25  C   UNL     1      16.225 -20.495   4.005  1.00  0.00    +0.082 A 
BRANCH  25  26
ATOM     26  S   UNL     1      14.904 -19.374   4.374  1.00  0.00    +0.238 S 
ATOM     27  O   UNL     1      14.660 -18.556   3.210  1.00  0.00    -0.207 OA
ATOM     28  O   UNL     1      13.853 -20.105   5.043  1.00  0.00    -0.207 OA
BRANCH  26  29
ATOM     29  N   UNL     1      15.609 -18.404   5.557  1.00  0.00    -0.225 NA
ATOM     30  H   UNL     1      16.170 -18.934   6.226  1.00  0.00    +0.137 HD
ATOM     31  H   UNL     1      14.876 -17.866   6.022  1.00  0.00    +0.137 HD
ENDBRANCH  26  29
ENDBRANCH  25  26
ENDBRANCH   5  20
TORSDOF 6
ENDMDL
MODEL 4
REMARK VINA RESULT:    -8.318      3.313      5.783
REMARK INTER + INTRA:         -11.999
REMARK INTER:                 -10.963
REMARK INTRA:                  -1.036
REMARK UNBOUND:                -1.007
REMARK SMILES Cc1ccc(C(=O)CN2C(=O)NC(C)(c3ccc(S(N)(=O)=O)cc3)C2=O)cc1
REMARK SMILES IDX 9 1 10 2 11 3 12 4 13 5 14 6 25 7 26 8 8 10 6 11 7 12 5 13
REMARK SMILES IDX 2 14 3 15 28 16 4 17 27 18 1 19 15 20 16 21 24 22 17 23
REMARK SMILES IDX 23 24 18 25 19 26 21 27 22 28 20 29
REMARK H PARENT 12 9 20 30 20 31
ROOT
ATOM      1  N   UNL     1      16.750 -21.614  -1.220  1.00  0.00    -0.254 N 
ATOM      2  C   UNL     1      15.616 -21.062  -1.725  1.00  0.00    +0.325 C 
ATOM      3  O   UNL     1      14.797 -21.596  -2.454  1.00  0.00    -0.248 OA
ATOM      4  N   UNL     1      15.528 -19.763  -1.294  1.00  0.00    -0.319 N 
ATOM      5  C   UNL     1      16.579 -19.412  -0.357  1.00  0.00    +0.144 C 
ATOM      6  C   UNL     1      17.388 -18.244  -0.922  1.00  0.00    +0.051 C 
ATOM      7  C   UNL     1      17.408 -20.720  -0.423  1.00  0.00    +0.261 C 
ATOM      8  O   UNL     1      18.478 -20.920   0.142  1.00  0.00    -0.271 OA
ATOM      9  H   UNL     1      14.726 -19.191  -1.518  1.00  0.00    +0.166 HD
ENDROOT
BRANCH   1  10
ATOM     10  C   UNL     1      17.138 -22.993  -1.403  1.00  0.00    +0.211 C 
BRANCH  10  11
ATOM     11  C   UNL     1      16.629 -23.819  -0.226  1.00  0.00    +0.182 C 
ATOM     12  O   UNL     1      15.586 -24.473  -0.273  1.00  0.00    -0.292 OA
BRANCH  11  13
ATOM     13  C   UNL     1      17.430 -23.817   1.037  1.00  0.00    +0.019 A 
ATOM     14  C   UNL     1      18.850 -23.784   3.469  1.00  0.00    -0.051 A 
ATOM     15  C   UNL     1      19.471 -24.206   2.288  1.00  0.00    +0.004 A 
ATOM     16  C   UNL     1      17.519 -23.358   3.422  1.00  0.00    +0.004 A 
ATOM     17  C   UNL     1      18.767 -24.227   1.080  1.00  0.00    +0.012 A 
ATOM     18  C   UNL     1      16.813 -23.379   2.216  1.00  0.00    +0.012 A 
ATOM     19  C   UNL     1      19.619 -23.730   4.757  1.00  0.00    +0.044 C 
ENDBRANCH  11  13
ENDBRANCH  10  11
ENDBRANCH   1  10
BRANCH   5  20
ATOM     20  C   UNL     1      16.062 -19.164   1.062  1.00  0.00    -0.013 A 
ATOM     21  C   UNL     1      16.546 -19.943   2.132  1.00  0.00    +0.008 A 
ATOM     22  C   UNL     1      15.079 -18.196   1.345  1.00  0.00    +0.008 A 
ATOM     23  C   UNL     1      16.075 -19.760   3.435  1.00  0.00    +0.022 A 
ATOM     24  C   UNL     1      14.603 -18.007   2.646  1.00  0.00    +0.022 A 
ATOM     25  C   UNL     1      15.097 -18.799   3.681  1.00  0.00    +0.082 A 
BRANCH  25  26
ATOM     26  S   UNL     1      14.483 -18.584   5.328  1.00  0.00    +0.238 S 
ATOM     27  O   UNL     1      13.743 -17.346   5.384  1.00  0.00    -0.207 OA
ATOM     28  O   UNL     1      13.930 -19.840   5.781  1.00  0.00    -0.207 OA
BRANCH  26  29
ATOM     29  N   UNL     1      15.913 -18.378   6.194  1.00  0.00    -0.225 NA
ATOM     30  H   UNL     1      16.682 -18.030   5.618  1.00  0.00    +0.137 HD
ATOM     31  H   UNL     1      16.153 -19.260   6.650  1.00  0.00    +0.137 HD
ENDBRANCH  26  29
ENDBRANCH  25  26
ENDBRANCH   5  20
TORSDOF 6
ENDMDL
MODEL 5
REMARK VINA RESULT:    -8.302      3.351      5.305
REMARK INTER + INTRA:         -11.978
REMARK INTER:                 -11.221
REMARK INTRA:                  -0.757
REMARK UNBOUND:                -1.007
REMARK SMILES Cc1ccc(C(=O)CN2C(=O)NC(C)(c3ccc(S(N)(=O)=O)cc3)C2=O)cc1
REMARK SMILES IDX 9 1 10 2 11 3 12 4 13 5 14 6 25 7 26 8 8 10 6 11 7 12 5 13
REMARK SMILES IDX 2 14 3 15 28 16 4 17 27 18 1 19 15 20 16 21 24 22 17 23
REMARK SMILES IDX 23 24 18 25 19 26 21 27 22 28 20 29
REMARK H PARENT 12 9 20 30 20 31
ROOT
ATOM      1  N   UNL     1      17.850 -22.998   1.868  1.00  0.00    -0.254 N 
ATOM      2  C   UNL     1      18.299 -24.264   1.668  1.00  0.00    +0.325 C 
ATOM      3  O   UNL     1      17.704 -25.303   1.898  1.00  0.00    -0.248 OA
ATOM      4  N   UNL     1      19.574 -24.204   1.162  1.00  0.00    -0.319 N 
ATOM      5  C   UNL     1      20.004 -22.847   0.888  1.00  0.00    +0.144 C 
ATOM      6  C   UNL     1      21.259 -22.541   1.707  1.00  0.00    +0.051 C 
ATOM      7  C   UNL     1      18.786 -22.085   1.469  1.00  0.00    +0.261 C 
ATOM      8  O   UNL     1      18.678 -20.867   1.561  1.00  0.00    -0.271 OA
ATOM      9  H   UNL     1      20.069 -25.043   0.894  1.00  0.00    +0.166 HD
ENDROOT
BRANCH   1  10
ATOM     10  C   UNL     1      16.520 -22.666   2.324  1.00  0.00    +0.211 C 
BRANCH  10  11
ATOM     11  C   UNL     1      16.573 -22.302   3.805  1.00  0.00    +0.182 C 
ATOM     12  O   UNL     1      17.331 -22.858   4.600  1.00  0.00    -0.292 OA
BRANCH  11  13
ATOM     13  C   UNL     1      15.654 -21.232   4.302  1.00  0.00    +0.019 A 
ATOM     14  C   UNL     1      13.957 -19.154   5.158  1.00  0.00    -0.051 A 
ATOM     15  C   UNL     1      13.928 -20.402   5.790  1.00  0.00    +0.004 A 
ATOM     16  C   UNL     1      14.856 -18.945   4.107  1.00  0.00    +0.004 A 
ATOM     17  C   UNL     1      14.766 -21.438   5.364  1.00  0.00    +0.012 A 
ATOM     18  C   UNL     1      15.696 -19.978   3.680  1.00  0.00    +0.012 A 
ATOM     19  C   UNL     1      13.080 -18.036   5.639  1.00  0.00    +0.044 C 
ENDBRANCH  11  13
ENDBRANCH  10  11
ENDBRANCH   1  10
BRANCH   5  20
ATOM     20  C   UNL     1      20.167 -22.557  -0.606  1.00  0.00    -0.013 A 
ATOM     21  C   UNL     1      21.406 -22.794  -1.235  1.00  0.00    +0.008 A 
ATOM     22  C   UNL     1      19.125 -22.021  -1.386  1.00  0.00    +0.008 A 
ATOM     23  C   UNL     1      21.597 -22.515  -2.591  1.00  0.00    +0.022 A 
ATOM     24  C   UNL     1      19.307 -21.739  -2.743  1.00  0.00    +0.022 A 
ATOM     25  C   UNL     1      20.547 -21.978  -3.334  1.00  0.00    +0.082 A 
BRANCH  25  26
ATOM     26  S   UNL     1      20.797 -21.601  -5.047  1.00  0.00    +0.238 S 
ATOM     27  O   UNL     1      21.876 -20.649  -5.154  1.00  0.00    -0.207 OA
ATOM     28  O   UNL     1      20.773 -22.836  -5.798  1.00  0.00    -0.207 OA
BRANCH  26  29
ATOM     29  N   UNL     1      19.360 -20.809  -5.428  1.00  0.00    -0.225 NA
ATOM     30  H   UNL     1      19.482 -20.075  -6.128  1.00  0.00    +0.137 HD
ATOM     31  H   UNL     1      18.947 -20.444  -4.569  1.00  0.00    +0.137 HD
ENDBRANCH  26  29
ENDBRANCH  25  26
ENDBRANCH   5  20
TORSDOF 6
ENDMDL
MODEL 6
REMARK VINA RESULT:    -8.260      2.924      3.977
REMARK INTER + INTRA:         -11.923
REMARK INTER:                 -11.234
REMARK INTRA:                  -0.689
REMARK UNBOUND:                -1.007
REMARK SMILES Cc1ccc(C(=O)CN2C(=O)NC(C)(c3ccc(S(N)(=O)=O)cc3)C2=O)cc1
REMARK SMILES IDX 9 1 10 2 11 3 12 4 13 5 14 6 25 7 26 8 8 10 6 11 7 12 5 13
REMARK SMILES IDX 2 14 3 15 28 16 4 17 27 18 1 19 15 20 16 21 24 22 17 23
REMARK SMILES IDX 23 24 18 25 19 26 21 27 22 28 20 29
REMARK H PARENT 12 9 20 30 20 31
ROOT
ATOM      1  N   UNL     1      16.826 -19.997   0.603  1.00  0.00    -0.254 N 
ATOM      2  C   UNL     1      16.443 -19.405  -0.557  1.00  0.00    +0.325 C 
ATOM      3  O   UNL     1      16.155 -18.232  -0.727  1.00  0.00    -0.248 OA
ATOM      4  N   UNL     1      16.412 -20.354  -1.548  1.00  0.00    -0.319 N 
ATOM      5  C   UNL     1      16.897 -21.645  -1.100  1.00  0.00    +0.144 C 
ATOM      6  C   UNL     1      15.794 -22.689  -1.280  1.00  0.00    +0.051 C 
ATOM      7  C   UNL     1      17.091 -21.323   0.403  1.00  0.00    +0.261 C 
ATOM      8  O   UNL     1      17.422 -22.123   1.272  1.00  0.00    -0.271 OA
ATOM      9  H   UNL     1      16.199 -20.105  -2.504  1.00  0.00    +0.166 HD
ENDROOT
BRANCH   1  10
ATOM     10  C   UNL     1      17.040 -19.294   1.847  1.00  0.00    +0.211 C 
BRANCH  10  11
ATOM     11  C   UNL     1      15.730 -19.240   2.625  1.00  0.00    +0.182 C 
ATOM     12  O   UNL     1      14.787 -18.520   2.293  1.00  0.00    -0.292 OA
BRANCH  11  13
ATOM     13  C   UNL     1      15.600 -20.090   3.849  1.00  0.00    +0.019 A 
ATOM     14  C   UNL     1      15.456 -21.726   6.136  1.00  0.00    -0.051 A 
ATOM     15  C   UNL     1      14.401 -20.868   5.808  1.00  0.00    +0.004 A 
ATOM     16  C   UNL     1      16.577 -21.776   5.301  1.00  0.00    +0.004 A 
ATOM     17  C   UNL     1      14.471 -20.051   4.675  1.00  0.00    +0.012 A 
ATOM     18  C   UNL     1      16.649 -20.961   4.168  1.00  0.00    +0.012 A 
ATOM     19  C   UNL     1      15.362 -22.626   7.334  1.00  0.00    +0.044 C 
ENDBRANCH  11  13
ENDBRANCH  10  11
ENDBRANCH   1  10
BRANCH   5  20
ATOM     20  C   UNL     1      18.224 -22.046  -1.748  1.00  0.00    -0.013 A 
ATOM     21  C   UNL     1      18.658 -21.396  -2.921  1.00  0.00    +0.008 A 
ATOM     22  C   UNL     1      19.029 -23.081  -1.234  1.00  0.00    +0.008 A 
ATOM     23  C   UNL     1      19.851 -21.756  -3.553  1.00  0.00    +0.022 A 
ATOM     24  C   UNL     1      20.225 -23.447  -1.860  1.00  0.00    +0.022 A 
ATOM     25  C   UNL     1      20.622 -22.789  -3.022  1.00  0.00    +0.082 A 
BRANCH  25  26
ATOM     26  S   UNL     1      22.122 -23.262  -3.838  1.00  0.00    +0.238 S 
ATOM     27  O   UNL     1      22.449 -22.253  -4.816  1.00  0.00    -0.207 OA
ATOM     28  O   UNL     1      23.066 -23.712  -2.840  1.00  0.00    -0.207 OA
BRANCH  26  29
ATOM     29  N   UNL     1      21.633 -24.649  -4.659  1.00  0.00    -0.225 NA
ATOM     30  H   UNL     1      21.973 -25.510  -4.228  1.00  0.00    +0.137 HD
ATOM     31  H   UNL     1      21.926 -24.575  -5.635  1.00  0.00    +0.137 HD
ENDBRANCH  26  29
ENDBRANCH  25  26
ENDBRANCH   5  20
TORSDOF 6
ENDMDL
MODEL 7
REMARK VINA RESULT:    -8.177      3.104      4.397
REMARK INTER + INTRA:         -11.813
REMARK INTER:                 -11.348
REMARK INTRA:                  -0.466
REMARK UNBOUND:                -1.007
REMARK SMILES Cc1ccc(C(=O)CN2C(=O)NC(C)(c3ccc(S(N)(=O)=O)cc3)C2=O)cc1
REMARK SMILES IDX 9 1 10 2 11 3 12 4 13 5 14 6 25 7 26 8 8 10 6 11 7 12 5 13
REMARK SMILES IDX 2 14 3 15 28 16 4 17 27 18 1 19 15 20 16 21 24 22 17 23
REMARK SMILES IDX 23 24 18 25 19 26 21 27 22 28 20 29
REMARK H PARENT 12 9 20 30 20 31
ROOT
ATOM      1  N   UNL     1      16.837 -20.209   0.875  1.00  0.00    -0.254 N 
ATOM      2  C   UNL     1      16.261 -19.736  -0.259  1.00  0.00    +0.325 C 
ATOM      3  O   UNL     1      15.816 -18.616  -0.450  1.00  0.00    -0.248 OA
ATOM      4  N   UNL     1      16.236 -20.741  -1.194  1.00  0.00    -0.319 N 
ATOM      5  C   UNL     1      16.921 -21.938  -0.745  1.00  0.00    +0.144 C 
ATOM      6  C   UNL     1      15.938 -23.110  -0.746  1.00  0.00    +0.051 C 
ATOM      7  C   UNL     1      17.237 -21.505   0.709  1.00  0.00    +0.261 C 
ATOM      8  O   UNL     1      17.756 -22.207   1.570  1.00  0.00    -0.271 OA
ATOM      9  H   UNL     1      15.892 -20.576  -2.129  1.00  0.00    +0.166 HD
ENDROOT
BRANCH   1  10
ATOM     10  C   UNL     1      17.100 -19.412   2.051  1.00  0.00    +0.211 C 
BRANCH  10  11
ATOM     11  C   UNL     1      16.121 -19.805   3.153  1.00  0.00    +0.182 C 
ATOM     12  O   UNL     1      16.213 -20.861   3.780  1.00  0.00    -0.292 OA
BRANCH  11  13
ATOM     13  C   UNL     1      15.000 -18.866   3.470  1.00  0.00    +0.019 A 
ATOM     14  C   UNL     1      12.886 -17.141   4.165  1.00  0.00    -0.051 A 
ATOM     15  C   UNL     1      13.504 -17.040   2.914  1.00  0.00    +0.004 A 
ATOM     16  C   UNL     1      13.318 -18.125   5.060  1.00  0.00    +0.004 A 
ATOM     17  C   UNL     1      14.558 -17.892   2.567  1.00  0.00    +0.012 A 
ATOM     18  C   UNL     1      14.370 -18.979   4.716  1.00  0.00    +0.012 A 
ATOM     19  C   UNL     1      11.734 -16.246   4.520  1.00  0.00    +0.044 C 
ENDBRANCH  11  13
ENDBRANCH  10  11
ENDBRANCH   1  10
BRANCH   5  20
ATOM     20  C   UNL     1      18.208 -22.223  -1.522  1.00  0.00    -0.013 A 
ATOM     21  C   UNL     1      18.460 -21.548  -2.734  1.00  0.00    +0.008 A 
ATOM     22  C   UNL     1      19.152 -23.173  -1.090  1.00  0.00    +0.008 A 
ATOM     23  C   UNL     1      19.612 -21.804  -3.482  1.00  0.00    +0.022 A 
ATOM     24  C   UNL     1      20.307 -23.435  -1.833  1.00  0.00    +0.022 A 
ATOM     25  C   UNL     1      20.524 -22.756  -3.030  1.00  0.00    +0.082 A 
BRANCH  25  26
ATOM     26  S   UNL     1      21.972 -23.098  -3.991  1.00  0.00    +0.238 S 
ATOM     27  O   UNL     1      22.198 -21.991  -4.889  1.00  0.00    -0.207 OA
ATOM     28  O   UNL     1      23.000 -23.607  -3.112  1.00  0.00    -0.207 OA
BRANCH  26  29
ATOM     29  N   UNL     1      21.462 -24.418  -4.907  1.00  0.00    -0.225 NA
ATOM     30  H   UNL     1      22.206 -25.094  -5.081  1.00  0.00    +0.137 HD
ATOM     31  H   UNL     1      21.051 -24.076  -5.777  1.00  0.00    +0.137 HD
ENDBRANCH  26  29
ENDBRANCH  25  26
ENDBRANCH   5  20
TORSDOF 6
ENDMDL
MODEL 8
REMARK VINA RESULT:    -8.148      3.721      7.661
REMARK INTER + INTRA:         -11.775
REMARK INTER:                 -11.105
REMARK INTRA:                  -0.669
REMARK UNBOUND:                -1.007
REMARK SMILES Cc1ccc(C(=O)CN2C(=O)NC(C)(c3ccc(S(N)(=O)=O)cc3)C2=O)cc1
REMARK SMILES IDX 9 1 10 2 11 3 12 4 13 5 14 6 25 7 26 8 8 10 6 11 7 12 5 13
REMARK SMILES IDX 2 14 3 15 28 16 4 17 27 18 1 19 15 20 16 21 24 22 17 23
REMARK SMILES IDX 23 24 18 25 19 26 21 27 22 28 20 29
REMARK H PARENT 12 9 20 30 20 31
ROOT
ATOM      1  N   UNL     1      18.743 -21.701   0.509  1.00  0.00    -0.254 N 
ATOM      2  C   UNL     1      19.559 -21.785   1.590  1.00  0.00    +0.325 C 
ATOM      3  O   UNL     1      20.745 -21.507   1.644  1.00  0.00    -0.248 OA
ATOM      4  N   UNL     1      18.833 -22.260   2.654  1.00  0.00    -0.319 N 
ATOM      5  C   UNL     1      17.425 -22.414   2.346  1.00  0.00    +0.144 C 
ATOM      6  C   UNL     1      17.021 -23.875   2.549  1.00  0.00    +0.051 C 
ATOM      7  C   UNL     1      17.469 -22.075   0.834  1.00  0.00    +0.261 C 
ATOM      8  O   UNL     1      16.523 -22.135   0.057  1.00  0.00    -0.271 OA
ATOM      9  H   UNL     1      19.247 -22.347   3.571  1.00  0.00    +0.166 HD
ENDROOT
BRANCH   1  10
ATOM     10  C   UNL     1      19.142 -21.172  -0.776  1.00  0.00    +0.211 C 
BRANCH  10  11
ATOM     11  C   UNL     1      19.767 -22.289  -1.606  1.00  0.00    +0.182 C 
ATOM     12  O   UNL     1      19.786 -23.464  -1.236  1.00  0.00    -0.292 OA
BRANCH  11  13
ATOM     13  C   UNL     1      20.392 -21.929  -2.917  1.00  0.00    +0.019 A 
ATOM     14  C   UNL     1      21.665 -21.267  -5.339  1.00  0.00    -0.051 A 
ATOM     15  C   UNL     1      20.270 -21.345  -5.267  1.00  0.00    +0.004 A 
ATOM     16  C   UNL     1      22.420 -21.502  -4.185  1.00  0.00    +0.004 A 
ATOM     17  C   UNL     1      19.635 -21.678  -4.066  1.00  0.00    +0.012 A 
ATOM     18  C   UNL     1      21.788 -21.834  -2.984  1.00  0.00    +0.012 A 
ATOM     19  C   UNL     1      22.341 -20.877  -6.621  1.00  0.00    +0.044 C 
ENDBRANCH  11  13
ENDBRANCH  10  11
ENDBRANCH   1  10
BRANCH   5  20
ATOM     20  C   UNL     1      16.533 -21.426   3.101  1.00  0.00    -0.013 A 
ATOM     21  C   UNL     1      16.453 -20.085   2.675  1.00  0.00    +0.008 A 
ATOM     22  C   UNL     1      15.802 -21.797   4.245  1.00  0.00    +0.008 A 
ATOM     23  C   UNL     1      15.669 -19.151   3.358  1.00  0.00    +0.022 A 
ATOM     24  C   UNL     1      15.015 -20.869   4.934  1.00  0.00    +0.022 A 
ATOM     25  C   UNL     1      14.963 -19.548   4.492  1.00  0.00    +0.082 A 
BRANCH  25  26
ATOM     26  S   UNL     1      13.989 -18.359   5.372  1.00  0.00    +0.238 S 
ATOM     27  O   UNL     1      12.633 -18.847   5.454  1.00  0.00    -0.207 OA
ATOM     28  O   UNL     1      14.730 -17.925   6.534  1.00  0.00    -0.207 OA
BRANCH  26  29
ATOM     29  N   UNL     1      14.011 -17.055   4.305  1.00  0.00    -0.225 NA
ATOM     30  H   UNL     1      13.651 -16.194   4.719  1.00  0.00    +0.137 HD
ATOM     31  H   UNL     1      13.497 -17.311   3.461  1.00  0.00    +0.137 HD
ENDBRANCH  26  29
ENDBRANCH  25  26
ENDBRANCH   5  20
TORSDOF 6
ENDMDL
MODEL 9
REMARK VINA RESULT:    -8.133      3.157      4.984
REMARK INTER + INTRA:         -11.754
REMARK INTER:                 -11.153
REMARK INTRA:                  -0.601
REMARK UNBOUND:                -1.007
REMARK SMILES Cc1ccc(C(=O)CN2C(=O)NC(C)(c3ccc(S(N)(=O)=O)cc3)C2=O)cc1
REMARK SMILES IDX 9 1 10 2 11 3 12 4 13 5 14 6 25 7 26 8 8 10 6 11 7 12 5 13
REMARK SMILES IDX 2 14 3 15 28 16 4 17 27 18 1 19 15 20 16 21 24 22 17 23
REMARK SMILES IDX 23 24 18 25 19 26 21 27 22 28 20 29
REMARK H PARENT 12 9 20 30 20 31
ROOT
ATOM      1  N   UNL     1      17.601 -21.684   2.148  1.00  0.00    -0.254 N 
ATOM      2  C   UNL     1      16.890 -20.667   1.598  1.00  0.00    +0.325 C 
ATOM      3  O   UNL     1      16.619 -19.595   2.111  1.00  0.00    -0.248 OA
ATOM      4  N   UNL     1      16.494 -21.037   0.337  1.00  0.00    -0.319 N 
ATOM      5  C   UNL     1      17.038 -22.320  -0.065  1.00  0.00    +0.144 C 
ATOM      6  C   UNL     1      15.888 -23.279  -0.377  1.00  0.00    +0.051 C 
ATOM      7  C   UNL     1      17.724 -22.720   1.265  1.00  0.00    +0.261 C 
ATOM      8  O   UNL     1      18.282 -23.788   1.492  1.00  0.00    -0.271 OA
ATOM      9  H   UNL     1      15.995 -20.396  -0.263  1.00  0.00    +0.166 HD
ENDROOT
BRANCH   1  10
ATOM     10  C   UNL     1      18.241 -21.627   3.442  1.00  0.00    +0.211 C 
BRANCH  10  11
ATOM     11  C   UNL     1      17.260 -22.102   4.509  1.00  0.00    +0.182 C 
ATOM     12  O   UNL     1      17.314 -23.227   5.009  1.00  0.00    -0.292 OA
BRANCH  11  13
ATOM     13  C   UNL     1      16.186 -21.160   4.951  1.00  0.00    +0.019 A 
ATOM     14  C   UNL     1      14.090 -19.459   5.751  1.00  0.00    -0.051 A 
ATOM     15  C   UNL     1      15.422 -19.106   5.989  1.00  0.00    +0.004 A 
ATOM     16  C   UNL     1      13.812 -20.660   5.090  1.00  0.00    +0.004 A 
ATOM     17  C   UNL     1      16.466 -19.951   5.597  1.00  0.00    +0.012 A 
ATOM     18  C   UNL     1      14.853 -21.506   4.697  1.00  0.00    +0.012 A 
ATOM     19  C   UNL     1      12.974 -18.534   6.143  1.00  0.00    +0.044 C 
ENDBRANCH  11  13
ENDBRANCH  10  11
ENDBRANCH   1  10
BRANCH   5  20
ATOM     20  C   UNL     1      18.062 -22.211  -1.198  1.00  0.00    -0.013 A 
ATOM     21  C   UNL     1      17.876 -21.263  -2.223  1.00  0.00    +0.008 A 
ATOM     22  C   UNL     1      19.184 -23.057  -1.280  1.00  0.00    +0.008 A 
ATOM     23  C   UNL     1      18.778 -21.156  -3.286  1.00  0.00    +0.022 A 
ATOM     24  C   UNL     1      20.091 -22.957  -2.339  1.00  0.00    +0.022 A 
ATOM     25  C   UNL     1      19.875 -22.013  -3.342  1.00  0.00    +0.082 A 
BRANCH  25  26
ATOM     26  S   UNL     1      21.004 -21.893  -4.701  1.00  0.00    +0.238 S 
ATOM     27  O   UNL     1      21.841 -20.735  -4.501  1.00  0.00    -0.207 OA
ATOM     28  O   UNL     1      21.545 -23.206  -4.968  1.00  0.00    -0.207 OA
BRANCH  26  29
ATOM     29  N   UNL     1      19.955 -21.566  -5.979  1.00  0.00    -0.225 NA
ATOM     30  H   UNL     1      19.120 -21.054  -5.689  1.00  0.00    +0.137 HD
ATOM     31  H   UNL     1      19.717 -22.444  -6.443  1.00  0.00    +0.137 HD
ENDBRANCH  26  29
ENDBRANCH  25  26
ENDBRANCH   5  20
TORSDOF 6
ENDMDL
