MODEL 1
REMARK VINA RESULT:    -8.645      0.000      0.000
REMARK INTER + INTRA:         -10.575
REMARK INTER:                 -10.161
REMARK INTRA:                  -0.413
REMARK UNBOUND:                -0.413
REMARK SMILES C=CC(=O)Nc1cc(C(F)(F)F)cc2c(=O)nc(N3CCC4(CC3)OC[C@H](C)O4)sc12
REMARK SMILES IDX 6 1 7 2 8 3 13 4 14 5 15 6 16 7 17 8 18 9 19 10 20 11 21 12
REMARK SMILES IDX 22 13 23 14 24 15 25 16 26 17 27 18 28 19 29 20 30 21 31 22
REMARK SMILES IDX 5 23 3 24 4 25 2 27 1 28 9 29 10 30 11 31 12 32
REMARK H PARENT 5 26
ROOT
ATOM      1  C   UNL     1      15.803 -18.928   2.444  1.00  0.00    +0.060 A 
ATOM      2  C   UNL     1      14.643 -18.415   3.037  1.00  0.00    +0.040 A 
ATOM      3  C   UNL     1      14.256 -18.796   4.334  1.00  0.00    +0.058 A 
ATOM      4  C   UNL     1      15.060 -19.701   5.037  1.00  0.00    +0.028 A 
ATOM      5  C   UNL     1      16.213 -20.230   4.444  1.00  0.00    +0.062 A 
ATOM      6  C   UNL     1      17.048 -21.182   5.206  1.00  0.00    +0.281 C 
ATOM      7  O   UNL     1      17.024 -21.107   6.430  1.00  0.00    -0.267 OA
ATOM      8  N   UNL     1      17.740 -22.159   4.548  1.00  0.00    -0.181 NA
ATOM      9  C   UNL     1      18.253 -22.003   3.368  1.00  0.00    +0.189 C 
ATOM     10  N   UNL     1      18.972 -23.032   2.765  1.00  0.00    -0.348 N 
ATOM     11  C   UNL     1      19.139 -24.308   3.485  1.00  0.00    +0.124 C 
ATOM     12  C   UNL     1      18.003 -25.253   3.105  1.00  0.00    +0.087 C 
ATOM     13  C   UNL     1      17.951 -25.448   1.588  1.00  0.00    +0.172 C 
ATOM     14  C   UNL     1      17.936 -24.111   0.841  1.00  0.00    +0.087 C 
ATOM     15  C   UNL     1      19.080 -23.220   1.312  1.00  0.00    +0.124 C 
ATOM     16  O   UNL     1      16.758 -26.176   1.242  1.00  0.00    -0.347 OA
ATOM     17  C   UNL     1      17.208 -27.503   0.963  1.00  0.00    +0.195 C 
ATOM     18  C   UNL     1      18.578 -27.274   0.376  1.00  0.00    +0.144 C 
ATOM     19  C   UNL     1      19.484 -28.485   0.440  1.00  0.00    +0.041 C 
ATOM     20  O   UNL     1      19.102 -26.212   1.178  1.00  0.00    -0.344 OA
ATOM     21  S   UNL     1      18.113 -20.487   2.481  1.00  0.00    -0.096 SA
ATOM     22  C   UNL     1      16.596 -19.850   3.160  1.00  0.00    +0.067 A 
ENDROOT
BRANCH   1  23
ATOM     23  N   UNL     1      16.231 -18.545   1.149  1.00  0.00    -0.321 N 
ATOM     24  C   UNL     1      16.105 -19.242  -0.028  1.00  0.00    +0.247 C 
ATOM     25  O   UNL     1      15.661 -20.374  -0.176  1.00  0.00    -0.270 OA
ATOM     26  H   UNL     1      16.725 -17.661   1.113  1.00  0.00    +0.170 HD
BRANCH  24  27
ATOM     27  C   UNL     1      16.641 -18.530  -1.222  1.00  0.00    +0.064 C 
ATOM     28  C   UNL     1      17.884 -18.655  -1.709  1.00  0.00    +0.014 C 
ENDBRANCH  24  27
ENDBRANCH   1  23
BRANCH   3  29
ATOM     29  C   UNL     1      13.017 -18.203   4.961  1.00  0.00    +0.416 C 
ATOM     30  F   UNL     1      12.366 -17.341   4.133  1.00  0.00    -0.166 F 
ATOM     31  F   UNL     1      13.295 -17.504   6.094  1.00  0.00    -0.166 F 
ATOM     32  F   UNL     1      12.095 -19.142   5.315  1.00  0.00    -0.166 F 
ENDBRANCH   3  29
TORSDOF 3
ENDMDL
MODEL 2
REMARK VINA RESULT:    -8.318      4.323      6.524
REMARK INTER + INTRA:         -10.190
REMARK INTER:                  -9.838
REMARK INTRA:                  -0.351
REMARK UNBOUND:                -0.413
REMARK SMILES C=CC(=O)Nc1cc(C(F)(F)F)cc2c(=O)nc(N3CCC4(CC3)OC[C@H](C)O4)sc12
REMARK SMILES IDX 6 1 7 2 8 3 13 4 14 5 15 6 16 7 17 8 18 9 19 10 20 11 21 12
REMARK SMILES IDX 22 13 23 14 24 15 25 16 26 17 27 18 28 19 29 20 30 21 31 22
REMARK SMILES IDX 5 23 3 24 4 25 2 27 1 28 9 29 10 30 11 31 12 32
REMARK H PARENT 5 26
ROOT
ATOM      1  C   UNL     1      17.358 -21.790   1.492  1.00  0.00    +0.060 A 
ATOM      2  C   UNL     1      17.028 -20.682   0.701  1.00  0.00    +0.040 A 
ATOM      3  C   UNL     1      17.713 -20.408  -0.495  1.00  0.00    +0.058 A 
ATOM      4  C   UNL     1      18.738 -21.273  -0.895  1.00  0.00    +0.028 A 
ATOM      5  C   UNL     1      19.085 -22.374  -0.102  1.00  0.00    +0.062 A 
ATOM      6  C   UNL     1      20.170 -23.274  -0.546  1.00  0.00    +0.281 C 
ATOM      7  O   UNL     1      20.386 -23.354  -1.751  1.00  0.00    -0.267 OA
ATOM      8  N   UNL     1      20.947 -23.911   0.380  1.00  0.00    -0.181 NA
ATOM      9  C   UNL     1      20.505 -24.322   1.526  1.00  0.00    +0.189 C 
ATOM     10  N   UNL     1      21.345 -24.991   2.413  1.00  0.00    -0.348 N 
ATOM     11  C   UNL     1      22.750 -25.223   2.032  1.00  0.00    +0.124 C 
ATOM     12  C   UNL     1      23.606 -24.064   2.531  1.00  0.00    +0.087 C 
ATOM     13  C   UNL     1      23.439 -23.883   4.041  1.00  0.00    +0.172 C 
ATOM     14  C   UNL     1      21.964 -23.799   4.446  1.00  0.00    +0.087 C 
ATOM     15  C   UNL     1      21.183 -24.976   3.872  1.00  0.00    +0.124 C 
ATOM     16  O   UNL     1      24.094 -22.669   4.452  1.00  0.00    -0.347 OA
ATOM     17  C   UNL     1      25.306 -23.098   5.073  1.00  0.00    +0.195 C 
ATOM     18  C   UNL     1      24.912 -24.412   5.699  1.00  0.00    +0.144 C 
ATOM     19  C   UNL     1      26.082 -25.325   5.998  1.00  0.00    +0.041 C 
ATOM     20  O   UNL     1      24.057 -24.999   4.714  1.00  0.00    -0.344 OA
ATOM     21  S   UNL     1      18.827 -24.100   2.014  1.00  0.00    -0.096 SA
ATOM     22  C   UNL     1      18.404 -22.645   1.082  1.00  0.00    +0.067 A 
ENDROOT
BRANCH   1  23
ATOM     23  N   UNL     1      16.671 -22.105   2.690  1.00  0.00    -0.321 N 
ATOM     24  C   UNL     1      16.273 -21.252   3.691  1.00  0.00    +0.247 C 
ATOM     25  O   UNL     1      16.504 -20.052   3.778  1.00  0.00    -0.270 OA
ATOM     26  H   UNL     1      16.493 -23.093   2.826  1.00  0.00    +0.170 HD
BRANCH  24  27
ATOM     27  C   UNL     1      15.539 -21.915   4.805  1.00  0.00    +0.064 C 
ATOM     28  C   UNL     1      14.333 -21.553   5.266  1.00  0.00    +0.014 C 
ENDBRANCH  24  27
ENDBRANCH   1  23
BRANCH   3  29
ATOM     29  C   UNL     1      17.315 -19.224  -1.343  1.00  0.00    +0.416 C 
ATOM     30  F   UNL     1      15.991 -18.926  -1.245  1.00  0.00    -0.166 F 
ATOM     31  F   UNL     1      17.561 -19.430  -2.666  1.00  0.00    -0.166 F 
ATOM     32  F   UNL     1      17.977 -18.082  -1.012  1.00  0.00    -0.166 F 
ENDBRANCH   3  29
TORSDOF 3
ENDMDL
MODEL 3
REMARK VINA RESULT:    -8.034      2.403      3.041
REMARK INTER + INTRA:          -9.856
REMARK INTER:                  -9.287
REMARK INTRA:                  -0.569
REMARK UNBOUND:                -0.413
REMARK SMILES C=CC(=O)Nc1cc(C(F)(F)F)cc2c(=O)nc(N3CCC4(CC3)OC[C@H](C)O4)sc12
REMARK SMILES IDX 6 1 7 2 8 3 13 4 14 5 15 6 16 7 17 8 18 9 19 10 20 11 21 12
REMARK SMILES IDX 22 13 23 14 24 15 25 16 26 17 27 18 28 19 29 20 30 21 31 22
REMARK SMILES IDX 5 23 3 24 4 25 2 27 1 28 9 29 10 30 11 31 12 32
REMARK H PARENT 5 26
ROOT
ATOM      1  C   UNL     1      16.902 -20.901   2.254  1.00  0.00    +0.060 A 
ATOM      2  C   UNL     1      15.762 -20.908   3.068  1.00  0.00    +0.040 A 
ATOM      3  C   UNL     1      15.750 -21.584   4.301  1.00  0.00    +0.058 A 
ATOM      4  C   UNL     1      16.908 -22.253   4.713  1.00  0.00    +0.028 A 
ATOM      5  C   UNL     1      18.046 -22.264   3.897  1.00  0.00    +0.062 A 
ATOM      6  C   UNL     1      19.259 -22.974   4.354  1.00  0.00    +0.281 C 
ATOM      7  O   UNL     1      19.428 -23.092   5.563  1.00  0.00    -0.267 OA
ATOM      8  N   UNL     1      20.096 -23.548   3.439  1.00  0.00    -0.181 NA
ATOM      9  C   UNL     1      20.318 -23.056   2.262  1.00  0.00    +0.189 C 
ATOM     10  N   UNL     1      21.207 -23.677   1.388  1.00  0.00    -0.348 N 
ATOM     11  C   UNL     1      21.891 -24.910   1.818  1.00  0.00    +0.124 C 
ATOM     12  C   UNL     1      21.064 -26.119   1.396  1.00  0.00    +0.087 C 
ATOM     13  C   UNL     1      20.809 -26.096  -0.113  1.00  0.00    +0.172 C 
ATOM     14  C   UNL     1      20.242 -24.750  -0.575  1.00  0.00    +0.087 C 
ATOM     15  C   UNL     1      21.112 -23.602  -0.076  1.00  0.00    +0.124 C 
ATOM     16  O   UNL     1      19.866 -27.128  -0.454  1.00  0.00    -0.347 OA
ATOM     17  C   UNL     1      20.654 -28.166  -1.039  1.00  0.00    +0.195 C 
ATOM     18  C   UNL     1      21.756 -27.400  -1.726  1.00  0.00    +0.144 C 
ATOM     19  C   UNL     1      22.995 -28.224  -2.008  1.00  0.00    +0.041 C 
ATOM     20  O   UNL     1      22.052 -26.352  -0.798  1.00  0.00    -0.344 OA
ATOM     21  S   UNL     1      19.554 -21.566   1.713  1.00  0.00    -0.096 SA
ATOM     22  C   UNL     1      18.058 -21.592   2.677  1.00  0.00    +0.067 A 
ENDROOT
BRANCH   1  23
ATOM     23  N   UNL     1      16.953 -20.210   1.018  1.00  0.00    -0.321 N 
ATOM     24  C   UNL     1      16.582 -20.663  -0.224  1.00  0.00    +0.247 C 
ATOM     25  O   UNL     1      16.202 -21.789  -0.521  1.00  0.00    -0.270 OA
ATOM     26  H   UNL     1      17.351 -19.280   1.072  1.00  0.00    +0.170 HD
BRANCH  24  27
ATOM     27  C   UNL     1      16.737 -19.659  -1.313  1.00  0.00    +0.064 C 
ATOM     28  C   UNL     1      17.639 -18.667  -1.333  1.00  0.00    +0.014 C 
ENDBRANCH  24  27
ENDBRANCH   1  23
BRANCH   3  29
ATOM     29  C   UNL     1      14.517 -21.549   5.173  1.00  0.00    +0.416 C 
ATOM     30  F   UNL     1      13.984 -20.302   5.284  1.00  0.00    -0.166 F 
ATOM     31  F   UNL     1      14.770 -21.969   6.442  1.00  0.00    -0.166 F 
ATOM     32  F   UNL     1      13.511 -22.341   4.709  1.00  0.00    -0.166 F 
ENDBRANCH   3  29
TORSDOF 3
ENDMDL
MODEL 4
REMARK VINA RESULT:    -7.787      6.416      8.735
REMARK INTER + INTRA:          -9.566
REMARK INTER:                  -9.114
REMARK INTRA:                  -0.452
REMARK UNBOUND:                -0.413
REMARK SMILES C=CC(=O)Nc1cc(C(F)(F)F)cc2c(=O)nc(N3CCC4(CC3)OC[C@H](C)O4)sc12
REMARK SMILES IDX 6 1 7 2 8 3 13 4 14 5 15 6 16 7 17 8 18 9 19 10 20 11 21 12
REMARK SMILES IDX 22 13 23 14 24 15 25 16 26 17 27 18 28 19 29 20 30 21 31 22
REMARK SMILES IDX 5 23 3 24 4 25 2 27 1 28 9 29 10 30 11 31 12 32
REMARK H PARENT 5 26
ROOT
ATOM      1  C   UNL     1      19.440 -21.673  -3.007  1.00  0.00    +0.060 A 
ATOM      2  C   UNL     1      19.706 -21.575  -4.379  1.00  0.00    +0.040 A 
ATOM      3  C   UNL     1      20.445 -22.563  -5.052  1.00  0.00    +0.058 A 
ATOM      4  C   UNL     1      20.910 -23.666  -4.327  1.00  0.00    +0.028 A 
ATOM      5  C   UNL     1      20.662 -23.764  -2.952  1.00  0.00    +0.062 A 
ATOM      6  C   UNL     1      21.162 -24.938  -2.207  1.00  0.00    +0.281 C 
ATOM      7  O   UNL     1      21.317 -25.983  -2.830  1.00  0.00    -0.267 OA
ATOM      8  N   UNL     1      21.515 -24.811  -0.894  1.00  0.00    -0.181 NA
ATOM      9  C   UNL     1      20.921 -24.011  -0.065  1.00  0.00    +0.189 C 
ATOM     10  N   UNL     1      21.314 -23.951   1.270  1.00  0.00    -0.348 N 
ATOM     11  C   UNL     1      22.422 -24.808   1.730  1.00  0.00    +0.124 C 
ATOM     12  C   UNL     1      23.737 -24.046   1.597  1.00  0.00    +0.087 C 
ATOM     13  C   UNL     1      23.671 -22.723   2.364  1.00  0.00    +0.172 C 
ATOM     14  C   UNL     1      22.429 -21.909   1.992  1.00  0.00    +0.087 C 
ATOM     15  C   UNL     1      21.171 -22.761   2.118  1.00  0.00    +0.124 C 
ATOM     16  O   UNL     1      24.839 -21.937   2.060  1.00  0.00    -0.347 OA
ATOM     17  C   UNL     1      25.676 -22.066   3.210  1.00  0.00    +0.195 C 
ATOM     18  C   UNL     1      24.679 -22.183   4.336  1.00  0.00    +0.144 C 
ATOM     19  C   UNL     1      25.242 -22.815   5.592  1.00  0.00    +0.041 C 
ATOM     20  O   UNL     1      23.652 -23.007   3.777  1.00  0.00    -0.344 OA
ATOM     21  S   UNL     1      19.569 -22.994  -0.556  1.00  0.00    -0.096 SA
ATOM     22  C   UNL     1      19.928 -22.785  -2.286  1.00  0.00    +0.067 A 
ENDROOT
BRANCH   1  23
ATOM     23  N   UNL     1      18.679 -20.706  -2.306  1.00  0.00    -0.321 N 
ATOM     24  C   UNL     1      17.327 -20.701  -2.063  1.00  0.00    +0.247 C 
ATOM     25  O   UNL     1      16.497 -21.501  -2.476  1.00  0.00    -0.270 OA
ATOM     26  H   UNL     1      19.211 -19.905  -1.983  1.00  0.00    +0.170 HD
BRANCH  24  27
ATOM     27  C   UNL     1      16.853 -19.538  -1.261  1.00  0.00    +0.064 C 
ATOM     28  C   UNL     1      15.755 -19.520  -0.493  1.00  0.00    +0.014 C 
ENDBRANCH  24  27
ENDBRANCH   1  23
BRANCH   3  29
ATOM     29  C   UNL     1      20.690 -22.446  -6.537  1.00  0.00    +0.416 C 
ATOM     30  F   UNL     1      19.929 -23.306  -7.268  1.00  0.00    -0.166 F 
ATOM     31  F   UNL     1      21.983 -22.708  -6.870  1.00  0.00    -0.166 F 
ATOM     32  F   UNL     1      20.420 -21.205  -7.028  1.00  0.00    -0.166 F 
ENDBRANCH   3  29
TORSDOF 3
ENDMDL
MODEL 5
REMARK VINA RESULT:    -7.593      5.158      7.311
REMARK INTER + INTRA:          -9.339
REMARK INTER:                  -8.870
REMARK INTRA:                  -0.469
REMARK UNBOUND:                -0.413
REMARK SMILES C=CC(=O)Nc1cc(C(F)(F)F)cc2c(=O)nc(N3CCC4(CC3)OC[C@H](C)O4)sc12
REMARK SMILES IDX 6 1 7 2 8 3 13 4 14 5 15 6 16 7 17 8 18 9 19 10 20 11 21 12
REMARK SMILES IDX 22 13 23 14 24 15 25 16 26 17 27 18 28 19 29 20 30 21 31 22
REMARK SMILES IDX 5 23 3 24 4 25 2 27 1 28 9 29 10 30 11 31 12 32
REMARK H PARENT 5 26
ROOT
ATOM      1  C   UNL     1      19.256 -21.389   1.007  1.00  0.00    +0.060 A 
ATOM      2  C   UNL     1      18.418 -20.432   1.596  1.00  0.00    +0.040 A 
ATOM      3  C   UNL     1      17.205 -20.056   0.994  1.00  0.00    +0.058 A 
ATOM      4  C   UNL     1      16.835 -20.662  -0.212  1.00  0.00    +0.028 A 
ATOM      5  C   UNL     1      17.675 -21.607  -0.815  1.00  0.00    +0.062 A 
ATOM      6  C   UNL     1      17.263 -22.236  -2.087  1.00  0.00    +0.281 C 
ATOM      7  O   UNL     1      16.062 -22.316  -2.319  1.00  0.00    -0.267 OA
ATOM      8  N   UNL     1      18.210 -22.622  -2.993  1.00  0.00    -0.181 NA
ATOM      9  C   UNL     1      19.378 -23.074  -2.661  1.00  0.00    +0.189 C 
ATOM     10  N   UNL     1      20.288 -23.477  -3.636  1.00  0.00    -0.348 N 
ATOM     11  C   UNL     1      19.905 -23.378  -5.057  1.00  0.00    +0.124 C 
ATOM     12  C   UNL     1      20.344 -22.023  -5.603  1.00  0.00    +0.087 C 
ATOM     13  C   UNL     1      21.846 -21.819  -5.392  1.00  0.00    +0.172 C 
ATOM     14  C   UNL     1      22.259 -22.078  -3.941  1.00  0.00    +0.087 C 
ATOM     15  C   UNL     1      21.746 -23.435  -3.471  1.00  0.00    +0.124 C 
ATOM     16  O   UNL     1      22.195 -20.464  -5.730  1.00  0.00    -0.347 OA
ATOM     17  C   UNL     1      22.825 -20.556  -7.009  1.00  0.00    +0.195 C 
ATOM     18  C   UNL     1      23.513 -21.896  -6.945  1.00  0.00    +0.144 C 
ATOM     19  C   UNL     1      23.843 -22.482  -8.302  1.00  0.00    +0.041 C 
ATOM     20  O   UNL     1      22.563 -22.718  -6.261  1.00  0.00    -0.344 OA
ATOM     21  S   UNL     1      19.870 -23.246  -0.978  1.00  0.00    -0.096 SA
ATOM     22  C   UNL     1      18.876 -21.981  -0.216  1.00  0.00    +0.067 A 
ENDROOT
BRANCH   1  23
ATOM     23  N   UNL     1      20.472 -21.806   1.601  1.00  0.00    -0.321 N 
ATOM     24  C   UNL     1      20.691 -22.887   2.420  1.00  0.00    +0.247 C 
ATOM     25  O   UNL     1      19.855 -23.664   2.862  1.00  0.00    -0.270 OA
ATOM     26  H   UNL     1      21.261 -21.196   1.418  1.00  0.00    +0.170 HD
BRANCH  24  27
ATOM     27  C   UNL     1      22.109 -23.054   2.847  1.00  0.00    +0.064 C 
ATOM     28  C   UNL     1      23.148 -22.342   2.388  1.00  0.00    +0.014 C 
ENDBRANCH  24  27
ENDBRANCH   1  23
BRANCH   3  29
ATOM     29  C   UNL     1      16.307 -19.045   1.666  1.00  0.00    +0.416 C 
ATOM     30  F   UNL     1      16.467 -17.786   1.174  1.00  0.00    -0.166 F 
ATOM     31  F   UNL     1      16.535 -18.961   3.005  1.00  0.00    -0.166 F 
ATOM     32  F   UNL     1      14.982 -19.330   1.528  1.00  0.00    -0.166 F 
ENDBRANCH   3  29
TORSDOF 3
ENDMDL
MODEL 6
REMARK VINA RESULT:    -7.592      4.535      6.644
REMARK INTER + INTRA:          -9.337
REMARK INTER:                  -8.846
REMARK INTRA:                  -0.491
REMARK UNBOUND:                -0.413
REMARK SMILES C=CC(=O)Nc1cc(C(F)(F)F)cc2c(=O)nc(N3CCC4(CC3)OC[C@H](C)O4)sc12
REMARK SMILES IDX 6 1 7 2 8 3 13 4 14 5 15 6 16 7 17 8 18 9 19 10 20 11 21 12
REMARK SMILES IDX 22 13 23 14 24 15 25 16 26 17 27 18 28 19 29 20 30 21 31 22
REMARK SMILES IDX 5 23 3 24 4 25 2 27 1 28 9 29 10 30 11 31 12 32
REMARK H PARENT 5 26
ROOT
ATOM      1  C   UNL     1      17.534 -22.292   2.459  1.00  0.00    +0.060 A 
ATOM      2  C   UNL     1      16.794 -21.859   1.351  1.00  0.00    +0.040 A 
ATOM      3  C   UNL     1      16.818 -22.564   0.136  1.00  0.00    +0.058 A 
ATOM      4  C   UNL     1      17.596 -23.723   0.047  1.00  0.00    +0.028 A 
ATOM      5  C   UNL     1      18.352 -24.154   1.144  1.00  0.00    +0.062 A 
ATOM      6  C   UNL     1      19.165 -25.383   1.028  1.00  0.00    +0.281 C 
ATOM      7  O   UNL     1      18.797 -26.234   0.224  1.00  0.00    -0.267 OA
ATOM      8  N   UNL     1      20.328 -25.499   1.735  1.00  0.00    -0.181 NA
ATOM      9  C   UNL     1      20.504 -24.991   2.914  1.00  0.00    +0.189 C 
ATOM     10  N   UNL     1      21.707 -25.171   3.592  1.00  0.00    -0.348 N 
ATOM     11  C   UNL     1      22.783 -25.947   2.949  1.00  0.00    +0.124 C 
ATOM     12  C   UNL     1      23.688 -25.000   2.166  1.00  0.00    +0.087 C 
ATOM     13  C   UNL     1      24.234 -23.900   3.079  1.00  0.00    +0.172 C 
ATOM     14  C   UNL     1      23.118 -23.203   3.863  1.00  0.00    +0.087 C 
ATOM     15  C   UNL     1      22.246 -24.228   4.580  1.00  0.00    +0.124 C 
ATOM     16  O   UNL     1      24.915 -22.914   2.282  1.00  0.00    -0.347 OA
ATOM     17  C   UNL     1      26.304 -23.175   2.486  1.00  0.00    +0.195 C 
ATOM     18  C   UNL     1      26.345 -23.672   3.909  1.00  0.00    +0.144 C 
ATOM     19  C   UNL     1      27.581 -24.481   4.242  1.00  0.00    +0.041 C 
ATOM     20  O   UNL     1      25.172 -24.487   4.002  1.00  0.00    -0.344 OA
ATOM     21  S   UNL     1      19.238 -24.087   3.740  1.00  0.00    -0.096 SA
ATOM     22  C   UNL     1      18.325 -23.456   2.349  1.00  0.00    +0.067 A 
ENDROOT
BRANCH   1  23
ATOM     23  N   UNL     1      17.512 -21.616   3.704  1.00  0.00    -0.321 N 
ATOM     24  C   UNL     1      16.481 -21.537   4.609  1.00  0.00    +0.247 C 
ATOM     25  O   UNL     1      15.346 -21.977   4.480  1.00  0.00    -0.270 OA
ATOM     26  H   UNL     1      18.357 -21.100   3.918  1.00  0.00    +0.170 HD
BRANCH  24  27
ATOM     27  C   UNL     1      16.807 -20.765   5.841  1.00  0.00    +0.064 C 
ATOM     28  C   UNL     1      16.156 -19.674   6.269  1.00  0.00    +0.014 C 
ENDBRANCH  24  27
ENDBRANCH   1  23
BRANCH   3  29
ATOM     29  C   UNL     1      15.986 -22.091  -1.032  1.00  0.00    +0.416 C 
ATOM     30  F   UNL     1      16.674 -22.092  -2.206  1.00  0.00    -0.166 F 
ATOM     31  F   UNL     1      15.529 -20.821  -0.860  1.00  0.00    -0.166 F 
ATOM     32  F   UNL     1      14.883 -22.860  -1.249  1.00  0.00    -0.166 F 
ENDBRANCH   3  29
TORSDOF 3
ENDMDL
MODEL 7
REMARK VINA RESULT:    -7.538      6.444      8.642
REMARK INTER + INTRA:          -9.274
REMARK INTER:                  -8.735
REMARK INTRA:                  -0.539
REMARK UNBOUND:                -0.413
REMARK SMILES C=CC(=O)Nc1cc(C(F)(F)F)cc2c(=O)nc(N3CCC4(CC3)OC[C@H](C)O4)sc12
REMARK SMILES IDX 6 1 7 2 8 3 13 4 14 5 15 6 16 7 17 8 18 9 19 10 20 11 21 12
REMARK SMILES IDX 22 13 23 14 24 15 25 16 26 17 27 18 28 19 29 20 30 21 31 22
REMARK SMILES IDX 5 23 3 24 4 25 2 27 1 28 9 29 10 30 11 31 12 32
REMARK H PARENT 5 26
ROOT
ATOM      1  C   UNL     1      24.932 -22.077   2.671  1.00  0.00    +0.060 A 
ATOM      2  C   UNL     1      25.438 -21.897   3.965  1.00  0.00    +0.040 A 
ATOM      3  C   UNL     1      25.030 -22.720   5.029  1.00  0.00    +0.058 A 
ATOM      4  C   UNL     1      24.106 -23.740   4.774  1.00  0.00    +0.028 A 
ATOM      5  C   UNL     1      23.584 -23.916   3.487  1.00  0.00    +0.062 A 
ATOM      6  C   UNL     1      22.611 -25.001   3.242  1.00  0.00    +0.281 C 
ATOM      7  O   UNL     1      22.659 -25.985   3.972  1.00  0.00    -0.267 OA
ATOM      8  N   UNL     1      21.646 -24.846   2.287  1.00  0.00    -0.181 NA
ATOM      9  C   UNL     1      21.825 -24.187   1.186  1.00  0.00    +0.189 C 
ATOM     10  N   UNL     1      20.806 -24.092   0.241  1.00  0.00    -0.348 N 
ATOM     11  C   UNL     1      19.514 -24.748   0.513  1.00  0.00    +0.124 C 
ATOM     12  C   UNL     1      18.583 -23.760   1.209  1.00  0.00    +0.087 C 
ATOM     13  C   UNL     1      18.422 -22.491   0.369  1.00  0.00    +0.172 C 
ATOM     14  C   UNL     1      19.775 -21.902  -0.041  1.00  0.00    +0.087 C 
ATOM     15  C   UNL     1      20.649 -22.969  -0.692  1.00  0.00    +0.124 C 
ATOM     16  O   UNL     1      17.708 -21.502   1.132  1.00  0.00    -0.347 OA
ATOM     17  C   UNL     1      16.385 -21.508   0.593  1.00  0.00    +0.195 C 
ATOM     18  C   UNL     1      16.620 -21.830  -0.861  1.00  0.00    +0.144 C 
ATOM     19  C   UNL     1      15.403 -22.383  -1.572  1.00  0.00    +0.041 C 
ATOM     20  O   UNL     1      17.662 -22.810  -0.814  1.00  0.00    -0.344 OA
ATOM     21  S   UNL     1      23.360 -23.416   0.799  1.00  0.00    -0.096 SA
ATOM     22  C   UNL     1      23.990 -23.101   2.433  1.00  0.00    +0.067 A 
ENDROOT
BRANCH   1  23
ATOM     23  N   UNL     1      25.341 -21.280   1.574  1.00  0.00    -0.321 N 
ATOM     24  C   UNL     1      26.547 -21.295   0.915  1.00  0.00    +0.247 C 
ATOM     25  O   UNL     1      27.539 -21.954   1.199  1.00  0.00    -0.270 OA
ATOM     26  H   UNL     1      24.659 -20.591   1.276  1.00  0.00    +0.170 HD
BRANCH  24  27
ATOM     27  C   UNL     1      26.634 -20.339  -0.224  1.00  0.00    +0.064 C 
ATOM     28  C   UNL     1      25.892 -19.231  -0.368  1.00  0.00    +0.014 C 
ENDBRANCH  24  27
ENDBRANCH   1  23
BRANCH   3  29
ATOM     29  C   UNL     1      25.615 -22.523   6.407  1.00  0.00    +0.416 C 
ATOM     30  F   UNL     1      25.121 -23.401   7.321  1.00  0.00    -0.166 F 
ATOM     31  F   UNL     1      25.366 -21.280   6.901  1.00  0.00    -0.166 F 
ATOM     32  F   UNL     1      26.968 -22.676   6.440  1.00  0.00    -0.166 F 
ENDBRANCH   3  29
TORSDOF 3
ENDMDL
MODEL 8
REMARK VINA RESULT:    -7.435      4.635      6.792
REMARK INTER + INTRA:          -9.152
REMARK INTER:                  -8.599
REMARK INTRA:                  -0.553
REMARK UNBOUND:                -0.413
REMARK SMILES C=CC(=O)Nc1cc(C(F)(F)F)cc2c(=O)nc(N3CCC4(CC3)OC[C@H](C)O4)sc12
REMARK SMILES IDX 6 1 7 2 8 3 13 4 14 5 15 6 16 7 17 8 18 9 19 10 20 11 21 12
REMARK SMILES IDX 22 13 23 14 24 15 25 16 26 17 27 18 28 19 29 20 30 21 31 22
REMARK SMILES IDX 5 23 3 24 4 25 2 27 1 28 9 29 10 30 11 31 12 32
REMARK H PARENT 5 26
ROOT
ATOM      1  C   UNL     1      17.038 -22.936   0.609  1.00  0.00    +0.060 A 
ATOM      2  C   UNL     1      16.704 -22.270   1.795  1.00  0.00    +0.040 A 
ATOM      3  C   UNL     1      16.804 -20.872   1.900  1.00  0.00    +0.058 A 
ATOM      4  C   UNL     1      17.239 -20.143   0.788  1.00  0.00    +0.028 A 
ATOM      5  C   UNL     1      17.590 -20.803  -0.397  1.00  0.00    +0.062 A 
ATOM      6  C   UNL     1      18.045 -20.013  -1.560  1.00  0.00    +0.281 C 
ATOM      7  O   UNL     1      17.647 -18.856  -1.653  1.00  0.00    -0.267 OA
ATOM      8  N   UNL     1      18.949 -20.547  -2.434  1.00  0.00    -0.181 NA
ATOM      9  C   UNL     1      18.993 -21.805  -2.740  1.00  0.00    +0.189 C 
ATOM     10  N   UNL     1      19.923 -22.280  -3.662  1.00  0.00    -0.348 N 
ATOM     11  C   UNL     1      20.863 -21.331  -4.285  1.00  0.00    +0.124 C 
ATOM     12  C   UNL     1      22.139 -21.264  -3.450  1.00  0.00    +0.087 C 
ATOM     13  C   UNL     1      22.747 -22.659  -3.288  1.00  0.00    +0.172 C 
ATOM     14  C   UNL     1      21.718 -23.676  -2.787  1.00  0.00    +0.087 C 
ATOM     15  C   UNL     1      20.466 -23.644  -3.657  1.00  0.00    +0.124 C 
ATOM     16  O   UNL     1      23.828 -22.600  -2.338  1.00  0.00    -0.347 OA
ATOM     17  C   UNL     1      25.015 -22.645  -3.131  1.00  0.00    +0.195 C 
ATOM     18  C   UNL     1      24.606 -23.515  -4.293  1.00  0.00    +0.144 C 
ATOM     19  C   UNL     1      25.473 -23.345  -5.523  1.00  0.00    +0.041 C 
ATOM     20  O   UNL     1      23.266 -23.091  -4.562  1.00  0.00    -0.344 OA
ATOM     21  S   UNL     1      17.869 -22.974  -2.051  1.00  0.00    -0.096 SA
ATOM     22  C   UNL     1      17.489 -22.188  -0.500  1.00  0.00    +0.067 A 
ENDROOT
BRANCH   1  23
ATOM     23  N   UNL     1      16.926 -24.341   0.465  1.00  0.00    -0.321 N 
ATOM     24  C   UNL     1      17.711 -25.318   1.029  1.00  0.00    +0.247 C 
ATOM     25  O   UNL     1      18.715 -25.161   1.712  1.00  0.00    -0.270 OA
ATOM     26  H   UNL     1      16.194 -24.642  -0.168  1.00  0.00    +0.170 HD
BRANCH  24  27
ATOM     27  C   UNL     1      17.294 -26.708   0.691  1.00  0.00    +0.064 C 
ATOM     28  C   UNL     1      17.368 -27.763   1.514  1.00  0.00    +0.014 C 
ENDBRANCH  24  27
ENDBRANCH   1  23
BRANCH   3  29
ATOM     29  C   UNL     1      16.407 -20.178   3.181  1.00  0.00    +0.416 C 
ATOM     30  F   UNL     1      15.064 -20.200   3.401  1.00  0.00    -0.166 F 
ATOM     31  F   UNL     1      16.772 -18.867   3.193  1.00  0.00    -0.166 F 
ATOM     32  F   UNL     1      16.972 -20.734   4.288  1.00  0.00    -0.166 F 
ENDBRANCH   3  29
TORSDOF 3
ENDMDL
MODEL 9
REMARK VINA RESULT:    -7.403      7.531      9.830
REMARK INTER + INTRA:          -9.114
REMARK INTER:                  -8.599
REMARK INTRA:                  -0.515
REMARK UNBOUND:                -0.413
REMARK SMILES C=CC(=O)Nc1cc(C(F)(F)F)cc2c(=O)nc(N3CCC4(CC3)OC[C@H](C)O4)sc12
REMARK SMILES IDX 6 1 7 2 8 3 13 4 14 5 15 6 16 7 17 8 18 9 19 10 20 11 21 12
REMARK SMILES IDX 22 13 23 14 24 15 25 16 26 17 27 18 28 19 29 20 30 21 31 22
REMARK SMILES IDX 5 23 3 24 4 25 2 27 1 28 9 29 10 30 11 31 12 32
REMARK H PARENT 5 26
ROOT
ATOM      1  C   UNL     1      20.273 -21.948  -3.359  1.00  0.00    +0.060 A 
ATOM      2  C   UNL     1      20.171 -21.809  -4.749  1.00  0.00    +0.040 A 
ATOM      3  C   UNL     1      20.885 -22.649  -5.621  1.00  0.00    +0.058 A 
ATOM      4  C   UNL     1      21.704 -23.644  -5.076  1.00  0.00    +0.028 A 
ATOM      5  C   UNL     1      21.824 -23.779  -3.687  1.00  0.00    +0.062 A 
ATOM      6  C   UNL     1      22.693 -24.838  -3.135  1.00  0.00    +0.281 C 
ATOM      7  O   UNL     1      22.875 -25.840  -3.819  1.00  0.00    -0.267 OA
ATOM      8  N   UNL     1      23.331 -24.642  -1.943  1.00  0.00    -0.181 NA
ATOM      9  C   UNL     1      22.826 -23.961  -0.963  1.00  0.00    +0.189 C 
ATOM     10  N   UNL     1      23.519 -23.823   0.238  1.00  0.00    -0.348 N 
ATOM     11  C   UNL     1      24.841 -24.460   0.379  1.00  0.00    +0.124 C 
ATOM     12  C   UNL     1      25.924 -23.471  -0.038  1.00  0.00    +0.087 C 
ATOM     13  C   UNL     1      25.814 -22.179   0.775  1.00  0.00    +0.172 C 
ATOM     14  C   UNL     1      24.394 -21.608   0.749  1.00  0.00    +0.087 C 
ATOM     15  C   UNL     1      23.379 -22.676   1.143  1.00  0.00    +0.124 C 
ATOM     16  O   UNL     1      26.711 -21.194   0.229  1.00  0.00    -0.347 OA
ATOM     17  C   UNL     1      27.815 -21.162   1.134  1.00  0.00    +0.195 C 
ATOM     18  C   UNL     1      27.164 -21.454   2.463  1.00  0.00    +0.144 C 
ATOM     19  C   UNL     1      28.122 -21.966   3.518  1.00  0.00    +0.041 C 
ATOM     20  O   UNL     1      26.194 -22.454   2.138  1.00  0.00    -0.344 OA
ATOM     21  S   UNL     1      21.236 -23.211  -1.069  1.00  0.00    -0.096 SA
ATOM     22  C   UNL     1      21.114 -22.948  -2.824  1.00  0.00    +0.067 A 
ENDROOT
BRANCH   1  23
ATOM     23  N   UNL     1      19.548 -21.133  -2.455  1.00  0.00    -0.321 N 
ATOM     24  C   UNL     1      18.247 -21.276  -2.039  1.00  0.00    +0.247 C 
ATOM     25  O   UNL     1      17.429 -22.099  -2.429  1.00  0.00    -0.270 OA
ATOM     26  H   UNL     1      20.058 -20.327  -2.113  1.00  0.00    +0.170 HD
BRANCH  24  27
ATOM     27  C   UNL     1      17.805 -20.252  -1.050  1.00  0.00    +0.064 C 
ATOM     28  C   UNL     1      17.639 -18.946  -1.305  1.00  0.00    +0.014 C 
ENDBRANCH  24  27
ENDBRANCH   1  23
BRANCH   3  29
ATOM     29  C   UNL     1      20.732 -22.496  -7.116  1.00  0.00    +0.416 C 
ATOM     30  F   UNL     1      21.906 -22.649  -7.786  1.00  0.00    -0.166 F 
ATOM     31  F   UNL     1      20.253 -21.271  -7.463  1.00  0.00    -0.166 F 
ATOM     32  F   UNL     1      19.874 -23.402  -7.661  1.00  0.00    -0.166 F 
ENDBRANCH   3  29
TORSDOF 3
ENDMDL
