MODEL 1
REMARK VINA RESULT:    -9.535      0.000      0.000
REMARK INTER + INTRA:         -15.921
REMARK INTER:                 -13.437
REMARK INTRA:                  -2.484
REMARK UNBOUND:                -2.484
REMARK SMILES CC1(c2ccc(S(=O)(=O)Nc3ccccc3)cc2)NC(=O)N(CC(=O)c2ccc(F)cc2F)C1=O
REMARK SMILES IDX 1 1 2 2 19 3 20 4 21 5 22 6 34 7 35 8 3 10 4 11 18 12 5 13
REMARK SMILES IDX 17 14 6 15 7 16 8 17 9 18 10 19 11 21 12 22 16 23 13 24
REMARK SMILES IDX 15 25 14 26 23 27 24 28 25 29 26 30 27 31 32 32 28 33 31 34
REMARK SMILES IDX 29 35 33 36 30 37
REMARK H PARENT 19 9 10 20
ROOT
ATOM      1  C   UNL     1      19.053 -25.406   1.713  1.00  0.00    +0.051 C 
ATOM      2  C   UNL     1      18.855 -23.923   1.384  1.00  0.00    +0.144 C 
ATOM      3  N   UNL     1      20.139 -23.320   1.084  1.00  0.00    -0.319 N 
ATOM      4  C   UNL     1      20.272 -22.994  -0.243  1.00  0.00    +0.325 C 
ATOM      5  O   UNL     1      21.304 -22.580  -0.743  1.00  0.00    -0.248 OA
ATOM      6  N   UNL     1      19.090 -23.223  -0.869  1.00  0.00    -0.254 N 
ATOM      7  C   UNL     1      18.191 -23.790  -0.009  1.00  0.00    +0.261 C 
ATOM      8  O   UNL     1      17.060 -24.160  -0.306  1.00  0.00    -0.271 OA
ATOM      9  H   UNL     1      20.947 -23.336   1.690  1.00  0.00    +0.166 HD
ENDROOT
BRANCH   2  10
ATOM     10  C   UNL     1      18.086 -23.180   2.474  1.00  0.00    -0.013 A 
ATOM     11  C   UNL     1      18.109 -23.654   3.800  1.00  0.00    +0.008 A 
ATOM     12  C   UNL     1      17.337 -22.018   2.205  1.00  0.00    +0.008 A 
ATOM     13  C   UNL     1      17.422 -22.994   4.821  1.00  0.00    +0.022 A 
ATOM     14  C   UNL     1      16.648 -21.349   3.222  1.00  0.00    +0.022 A 
ATOM     15  C   UNL     1      16.709 -21.832   4.529  1.00  0.00    +0.087 A 
BRANCH  15  16
ATOM     16  S   UNL     1      15.821 -20.988   5.820  1.00  0.00    +0.261 S 
ATOM     17  O   UNL     1      15.560 -21.953   6.868  1.00  0.00    -0.201 OA
ATOM     18  O   UNL     1      16.507 -19.746   6.103  1.00  0.00    -0.201 OA
BRANCH  16  19
ATOM     19  N   UNL     1      14.326 -20.662   5.106  1.00  0.00    -0.280 N 
ATOM     20  H   UNL     1      14.091 -21.339   4.384  1.00  0.00    +0.180 HD
BRANCH  19  21
ATOM     21  C   UNL     1      13.919 -19.312   4.915  1.00  0.00    +0.049 A 
ATOM     22  C   UNL     1      13.144 -18.696   5.900  1.00  0.00    +0.027 A 
ATOM     23  C   UNL     1      14.261 -18.616   3.758  1.00  0.00    +0.027 A 
ATOM     24  C   UNL     1      12.706 -17.383   5.720  1.00  0.00    +0.002 A 
ATOM     25  C   UNL     1      13.822 -17.303   3.579  1.00  0.00    +0.002 A 
ATOM     26  C   UNL     1      13.045 -16.687   4.559  1.00  0.00    +0.000 A 
ENDBRANCH  19  21
ENDBRANCH  16  19
ENDBRANCH  15  16
ENDBRANCH   2  10
BRANCH   6  27
ATOM     27  C   UNL     1      18.884 -23.075  -2.291  1.00  0.00    +0.211 C 
BRANCH  27  28
ATOM     28  C   UNL     1      18.644 -21.599  -2.602  1.00  0.00    +0.185 C 
ATOM     29  O   UNL     1      19.214 -21.015  -3.526  1.00  0.00    -0.292 OA
BRANCH  28  30
ATOM     30  C   UNL     1      17.681 -20.829  -1.766  1.00  0.00    +0.055 A 
ATOM     31  C   UNL     1      18.179 -19.803  -0.945  1.00  0.00    +0.018 A 
ATOM     32  C   UNL     1      16.305 -21.078  -1.770  1.00  0.00    +0.136 A 
ATOM     33  C   UNL     1      17.313 -19.055  -0.144  1.00  0.00    +0.040 A 
ATOM     34  C   UNL     1      15.438 -20.335  -0.973  1.00  0.00    +0.079 A 
ATOM     35  C   UNL     1      15.951 -19.330  -0.165  1.00  0.00    +0.126 A 
ATOM     36  F   UNL     1      15.775 -22.032  -2.547  1.00  0.00    -0.206 F 
ATOM     37  F   UNL     1      15.121 -18.613   0.601  1.00  0.00    -0.207 F 
ENDBRANCH  28  30
ENDBRANCH  27  28
ENDBRANCH   6  27
TORSDOF 7
ENDMDL
MODEL 2
REMARK VINA RESULT:    -8.877      3.226      6.260
REMARK INTER + INTRA:         -14.993
REMARK INTER:                 -12.982
REMARK INTRA:                  -2.012
REMARK UNBOUND:                -2.484
REMARK SMILES CC1(c2ccc(S(=O)(=O)Nc3ccccc3)cc2)NC(=O)N(CC(=O)c2ccc(F)cc2F)C1=O
REMARK SMILES IDX 1 1 2 2 19 3 20 4 21 5 22 6 34 7 35 8 3 10 4 11 18 12 5 13
REMARK SMILES IDX 17 14 6 15 7 16 8 17 9 18 10 19 11 21 12 22 16 23 13 24
REMARK SMILES IDX 15 25 14 26 23 27 24 28 25 29 26 30 27 31 32 32 28 33 31 34
REMARK SMILES IDX 29 35 33 36 30 37
REMARK H PARENT 19 9 10 20
ROOT
ATOM      1  C   UNL     1      18.222 -22.347  -2.573  1.00  0.00    +0.051 C 
ATOM      2  C   UNL     1      18.444 -21.488  -1.325  1.00  0.00    +0.144 C 
ATOM      3  N   UNL     1      18.748 -20.127  -1.723  1.00  0.00    -0.319 N 
ATOM      4  C   UNL     1      17.733 -19.252  -1.428  1.00  0.00    +0.325 C 
ATOM      5  O   UNL     1      17.721 -18.082  -1.771  1.00  0.00    -0.248 OA
ATOM      6  N   UNL     1      16.779 -19.912  -0.725  1.00  0.00    -0.254 N 
ATOM      7  C   UNL     1      17.086 -21.240  -0.623  1.00  0.00    +0.261 C 
ATOM      8  O   UNL     1      16.383 -22.093  -0.093  1.00  0.00    -0.271 OA
ATOM      9  H   UNL     1      19.492 -19.855  -2.349  1.00  0.00    +0.166 HD
ENDROOT
BRANCH   2  10
ATOM     10  C   UNL     1      19.490 -22.083  -0.384  1.00  0.00    -0.013 A 
ATOM     11  C   UNL     1      20.175 -23.260  -0.747  1.00  0.00    +0.008 A 
ATOM     12  C   UNL     1      19.804 -21.496   0.857  1.00  0.00    +0.008 A 
ATOM     13  C   UNL     1      21.141 -23.826   0.087  1.00  0.00    +0.022 A 
ATOM     14  C   UNL     1      20.773 -22.055   1.697  1.00  0.00    +0.022 A 
ATOM     15  C   UNL     1      21.448 -23.209   1.299  1.00  0.00    +0.087 A 
BRANCH  15  16
ATOM     16  S   UNL     1      22.671 -23.926   2.375  1.00  0.00    +0.261 S 
ATOM     17  O   UNL     1      23.471 -24.833   1.577  1.00  0.00    -0.201 OA
ATOM     18  O   UNL     1      23.286 -22.860   3.136  1.00  0.00    -0.201 OA
BRANCH  16  19
ATOM     19  N   UNL     1      21.751 -24.900   3.403  1.00  0.00    -0.280 N 
ATOM     20  H   UNL     1      21.958 -25.889   3.279  1.00  0.00    +0.180 HD
BRANCH  19  21
ATOM     21  C   UNL     1      20.411 -24.531   3.708  1.00  0.00    +0.049 A 
ATOM     22  C   UNL     1      19.367 -25.142   3.011  1.00  0.00    +0.027 A 
ATOM     23  C   UNL     1      20.136 -23.558   4.667  1.00  0.00    +0.027 A 
ATOM     24  C   UNL     1      18.047 -24.772   3.270  1.00  0.00    +0.002 A 
ATOM     25  C   UNL     1      18.814 -23.189   4.926  1.00  0.00    +0.002 A 
ATOM     26  C   UNL     1      17.771 -23.796   4.228  1.00  0.00    +0.000 A 
ENDBRANCH  19  21
ENDBRANCH  16  19
ENDBRANCH  15  16
ENDBRANCH   2  10
BRANCH   6  27
ATOM     27  C   UNL     1      15.521 -19.327  -0.319  1.00  0.00    +0.211 C 
BRANCH  27  28
ATOM     28  C   UNL     1      15.767 -18.410   0.877  1.00  0.00    +0.185 C 
ATOM     29  O   UNL     1      16.094 -17.228   0.750  1.00  0.00    -0.292 OA
BRANCH  28  30
ATOM     30  C   UNL     1      15.603 -18.955   2.254  1.00  0.00    +0.055 A 
ATOM     31  C   UNL     1      16.486 -19.959   2.687  1.00  0.00    +0.018 A 
ATOM     32  C   UNL     1      14.615 -18.505   3.135  1.00  0.00    +0.136 A 
ATOM     33  C   UNL     1      16.370 -20.498   3.970  1.00  0.00    +0.040 A 
ATOM     34  C   UNL     1      14.494 -19.039   4.415  1.00  0.00    +0.079 A 
ATOM     35  C   UNL     1      15.373 -20.034   4.821  1.00  0.00    +0.126 A 
ATOM     36  F   UNL     1      13.758 -17.537   2.781  1.00  0.00    -0.206 F 
ATOM     37  F   UNL     1      15.262 -20.550   6.050  1.00  0.00    -0.207 F 
ENDBRANCH  28  30
ENDBRANCH  27  28
ENDBRANCH   6  27
TORSDOF 7
ENDMDL
MODEL 3
REMARK VINA RESULT:    -8.875      3.815      7.460
REMARK INTER + INTRA:         -14.991
REMARK INTER:                 -13.490
REMARK INTRA:                  -1.500
REMARK UNBOUND:                -2.484
REMARK SMILES CC1(c2ccc(S(=O)(=O)Nc3ccccc3)cc2)NC(=O)N(CC(=O)c2ccc(F)cc2F)C1=O
REMARK SMILES IDX 1 1 2 2 19 3 20 4 21 5 22 6 34 7 35 8 3 10 4 11 18 12 5 13
REMARK SMILES IDX 17 14 6 15 7 16 8 17 9 18 10 19 11 21 12 22 16 23 13 24
REMARK SMILES IDX 15 25 14 26 23 27 24 28 25 29 26 30 27 31 32 32 28 33 31 34
REMARK SMILES IDX 29 35 33 36 30 37
REMARK H PARENT 19 9 10 20
ROOT
ATOM      1  C   UNL     1      18.358 -22.367  -2.423  1.00  0.00    +0.051 C 
ATOM      2  C   UNL     1      18.523 -21.476  -1.188  1.00  0.00    +0.144 C 
ATOM      3  N   UNL     1      18.833 -20.122  -1.607  1.00  0.00    -0.319 N 
ATOM      4  C   UNL     1      17.801 -19.248  -1.375  1.00  0.00    +0.325 C 
ATOM      5  O   UNL     1      17.795 -18.087  -1.747  1.00  0.00    -0.248 OA
ATOM      6  N   UNL     1      16.824 -19.898  -0.694  1.00  0.00    -0.254 N 
ATOM      7  C   UNL     1      17.135 -21.221  -0.548  1.00  0.00    +0.261 C 
ATOM      8  O   UNL     1      16.417 -22.066  -0.026  1.00  0.00    -0.271 OA
ATOM      9  H   UNL     1      19.601 -19.860  -2.209  1.00  0.00    +0.166 HD
ENDROOT
BRANCH   2  10
ATOM     10  C   UNL     1      19.533 -22.039  -0.191  1.00  0.00    -0.013 A 
ATOM     11  C   UNL     1      19.533 -21.588   1.144  1.00  0.00    +0.008 A 
ATOM     12  C   UNL     1      20.487 -23.009  -0.556  1.00  0.00    +0.008 A 
ATOM     13  C   UNL     1      20.439 -22.087   2.081  1.00  0.00    +0.022 A 
ATOM     14  C   UNL     1      21.396 -23.517   0.378  1.00  0.00    +0.022 A 
ATOM     15  C   UNL     1      21.356 -23.065   1.697  1.00  0.00    +0.087 A 
BRANCH  15  16
ATOM     16  S   UNL     1      22.522 -23.702   2.880  1.00  0.00    +0.261 S 
ATOM     17  O   UNL     1      21.778 -24.065   4.069  1.00  0.00    -0.201 OA
ATOM     18  O   UNL     1      23.370 -24.662   2.208  1.00  0.00    -0.201 OA
BRANCH  16  19
ATOM     19  N   UNL     1      23.427 -22.339   3.297  1.00  0.00    -0.280 N 
ATOM     20  H   UNL     1      22.839 -21.570   3.611  1.00  0.00    +0.180 HD
BRANCH  19  21
ATOM     21  C   UNL     1      24.601 -22.023   2.559  1.00  0.00    +0.049 A 
ATOM     22  C   UNL     1      25.846 -22.175   3.174  1.00  0.00    +0.027 A 
ATOM     23  C   UNL     1      24.521 -21.546   1.252  1.00  0.00    +0.027 A 
ATOM     24  C   UNL     1      27.010 -21.841   2.480  1.00  0.00    +0.002 A 
ATOM     25  C   UNL     1      25.687 -21.213   0.559  1.00  0.00    +0.002 A 
ATOM     26  C   UNL     1      26.930 -21.360   1.173  1.00  0.00    +0.000 A 
ENDBRANCH  19  21
ENDBRANCH  16  19
ENDBRANCH  15  16
ENDBRANCH   2  10
BRANCH   6  27
ATOM     27  C   UNL     1      15.546 -19.314  -0.355  1.00  0.00    +0.211 C 
BRANCH  27  28
ATOM     28  C   UNL     1      15.732 -18.388   0.845  1.00  0.00    +0.185 C 
ATOM     29  O   UNL     1      15.997 -17.190   0.725  1.00  0.00    -0.292 OA
BRANCH  28  30
ATOM     30  C   UNL     1      15.585 -18.945   2.220  1.00  0.00    +0.055 A 
ATOM     31  C   UNL     1      16.479 -19.945   2.637  1.00  0.00    +0.018 A 
ATOM     32  C   UNL     1      14.600 -18.509   3.113  1.00  0.00    +0.136 A 
ATOM     33  C   UNL     1      16.378 -20.496   3.917  1.00  0.00    +0.040 A 
ATOM     34  C   UNL     1      14.495 -19.055   4.390  1.00  0.00    +0.079 A 
ATOM     35  C   UNL     1      15.386 -20.046   4.780  1.00  0.00    +0.126 A 
ATOM     36  F   UNL     1      13.733 -17.546   2.774  1.00  0.00    -0.206 F 
ATOM     37  F   UNL     1      15.289 -20.572   6.006  1.00  0.00    -0.207 F 
ENDBRANCH  28  30
ENDBRANCH  27  28
ENDBRANCH   6  27
TORSDOF 7
ENDMDL
MODEL 4
REMARK VINA RESULT:    -8.747      4.323      9.422
REMARK INTER + INTRA:         -14.811
REMARK INTER:                 -13.772
REMARK INTRA:                  -1.039
REMARK UNBOUND:                -2.484
REMARK SMILES CC1(c2ccc(S(=O)(=O)Nc3ccccc3)cc2)NC(=O)N(CC(=O)c2ccc(F)cc2F)C1=O
REMARK SMILES IDX 1 1 2 2 19 3 20 4 21 5 22 6 34 7 35 8 3 10 4 11 18 12 5 13
REMARK SMILES IDX 17 14 6 15 7 16 8 17 9 18 10 19 11 21 12 22 16 23 13 24
REMARK SMILES IDX 15 25 14 26 23 27 24 28 25 29 26 30 27 31 32 32 28 33 31 34
REMARK SMILES IDX 29 35 33 36 30 37
REMARK H PARENT 19 9 10 20
ROOT
ATOM      1  C   UNL     1      17.187 -23.723  -0.233  1.00  0.00    +0.051 C 
ATOM      2  C   UNL     1      17.715 -22.376  -0.734  1.00  0.00    +0.144 C 
ATOM      3  N   UNL     1      16.608 -21.571  -1.213  1.00  0.00    -0.319 N 
ATOM      4  C   UNL     1      16.343 -20.499  -0.398  1.00  0.00    +0.325 C 
ATOM      5  O   UNL     1      15.390 -19.752  -0.543  1.00  0.00    -0.248 OA
ATOM      6  N   UNL     1      17.295 -20.439   0.567  1.00  0.00    -0.254 N 
ATOM      7  C   UNL     1      18.142 -21.508   0.476  1.00  0.00    +0.261 C 
ATOM      8  O   UNL     1      19.065 -21.751   1.247  1.00  0.00    -0.271 OA
ATOM      9  H   UNL     1      15.942 -21.855  -1.917  1.00  0.00    +0.166 HD
ENDROOT
BRANCH   2  10
ATOM     10  C   UNL     1      18.831 -22.533  -1.766  1.00  0.00    -0.013 A 
ATOM     11  C   UNL     1      18.816 -21.756  -2.941  1.00  0.00    +0.008 A 
ATOM     12  C   UNL     1      19.894 -23.440  -1.590  1.00  0.00    +0.008 A 
ATOM     13  C   UNL     1      19.824 -21.871  -3.902  1.00  0.00    +0.022 A 
ATOM     14  C   UNL     1      20.909 -23.558  -2.545  1.00  0.00    +0.022 A 
ATOM     15  C   UNL     1      20.877 -22.760  -3.689  1.00  0.00    +0.087 A 
BRANCH  15  16
ATOM     16  S   UNL     1      22.161 -22.922  -4.910  1.00  0.00    +0.261 S 
ATOM     17  O   UNL     1      22.838 -21.645  -4.998  1.00  0.00    -0.201 OA
ATOM     18  O   UNL     1      22.895 -24.138  -4.635  1.00  0.00    -0.201 OA
BRANCH  16  19
ATOM     19  N   UNL     1      21.300 -23.091  -6.351  1.00  0.00    -0.280 N 
ATOM     20  H   UNL     1      21.190 -24.066  -6.620  1.00  0.00    +0.180 HD
BRANCH  19  21
ATOM     21  C   UNL     1      21.466 -22.128  -7.386  1.00  0.00    +0.049 A 
ATOM     22  C   UNL     1      22.433 -22.352  -8.367  1.00  0.00    +0.027 A 
ATOM     23  C   UNL     1      20.698 -20.965  -7.414  1.00  0.00    +0.027 A 
ATOM     24  C   UNL     1      22.635 -21.406  -9.373  1.00  0.00    +0.002 A 
ATOM     25  C   UNL     1      20.901 -20.020  -8.421  1.00  0.00    +0.002 A 
ATOM     26  C   UNL     1      21.870 -20.240  -9.399  1.00  0.00    +0.000 A 
ENDBRANCH  19  21
ENDBRANCH  16  19
ENDBRANCH  15  16
ENDBRANCH   2  10
BRANCH   6  27
ATOM     27  C   UNL     1      17.287 -19.490   1.656  1.00  0.00    +0.211 C 
BRANCH  27  28
ATOM     28  C   UNL     1      16.304 -19.971   2.721  1.00  0.00    +0.185 C 
ATOM     29  O   UNL     1      16.334 -21.114   3.183  1.00  0.00    -0.292 OA
BRANCH  28  30
ATOM     30  C   UNL     1      15.268 -19.029   3.231  1.00  0.00    +0.055 A 
ATOM     31  C   UNL     1      14.697 -18.112   2.333  1.00  0.00    +0.018 A 
ATOM     32  C   UNL     1      14.837 -19.024   4.562  1.00  0.00    +0.136 A 
ATOM     33  C   UNL     1      13.722 -17.210   2.767  1.00  0.00    +0.040 A 
ATOM     34  C   UNL     1      13.867 -18.127   4.999  1.00  0.00    +0.079 A 
ATOM     35  C   UNL     1      13.318 -17.226   4.097  1.00  0.00    +0.126 A 
ATOM     36  F   UNL     1      15.336 -19.889   5.456  1.00  0.00    -0.206 F 
ATOM     37  F   UNL     1      12.385 -16.363   4.513  1.00  0.00    -0.207 F 
ENDBRANCH  28  30
ENDBRANCH  27  28
ENDBRANCH   6  27
TORSDOF 7
ENDMDL
MODEL 5
REMARK VINA RESULT:    -8.587      4.390      9.494
REMARK INTER + INTRA:         -14.585
REMARK INTER:                 -14.122
REMARK INTRA:                  -0.463
REMARK UNBOUND:                -2.484
REMARK SMILES CC1(c2ccc(S(=O)(=O)Nc3ccccc3)cc2)NC(=O)N(CC(=O)c2ccc(F)cc2F)C1=O
REMARK SMILES IDX 1 1 2 2 19 3 20 4 21 5 22 6 34 7 35 8 3 10 4 11 18 12 5 13
REMARK SMILES IDX 17 14 6 15 7 16 8 17 9 18 10 19 11 21 12 22 16 23 13 24
REMARK SMILES IDX 15 25 14 26 23 27 24 28 25 29 26 30 27 31 32 32 28 33 31 34
REMARK SMILES IDX 29 35 33 36 30 37
REMARK H PARENT 19 9 10 20
ROOT
ATOM      1  C   UNL     1      15.815 -22.522  -1.032  1.00  0.00    +0.051 C 
ATOM      2  C   UNL     1      16.953 -21.498  -1.082  1.00  0.00    +0.144 C 
ATOM      3  N   UNL     1      16.420 -20.201  -1.452  1.00  0.00    -0.319 N 
ATOM      4  C   UNL     1      16.447 -19.305  -0.413  1.00  0.00    +0.325 C 
ATOM      5  O   UNL     1      15.950 -18.192  -0.460  1.00  0.00    -0.248 OA
ATOM      6  N   UNL     1      17.092 -19.872   0.637  1.00  0.00    -0.254 N 
ATOM      7  C   UNL     1      17.415 -21.171   0.359  1.00  0.00    +0.261 C 
ATOM      8  O   UNL     1      17.953 -21.952   1.138  1.00  0.00    -0.271 OA
ATOM      9  H   UNL     1      15.874 -20.009  -2.280  1.00  0.00    +0.166 HD
ENDROOT
BRANCH   2  10
ATOM     10  C   UNL     1      18.104 -21.949  -1.979  1.00  0.00    -0.013 A 
ATOM     11  C   UNL     1      18.407 -21.228  -3.151  1.00  0.00    +0.008 A 
ATOM     12  C   UNL     1      18.892 -23.078  -1.681  1.00  0.00    +0.008 A 
ATOM     13  C   UNL     1      19.457 -21.609  -3.990  1.00  0.00    +0.022 A 
ATOM     14  C   UNL     1      19.947 -23.465  -2.513  1.00  0.00    +0.022 A 
ATOM     15  C   UNL     1      20.234 -22.718  -3.656  1.00  0.00    +0.087 A 
BRANCH  15  16
ATOM     16  S   UNL     1      21.568 -23.219  -4.721  1.00  0.00    +0.261 S 
ATOM     17  O   UNL     1      22.526 -22.133  -4.755  1.00  0.00    -0.201 OA
ATOM     18  O   UNL     1      21.969 -24.557  -4.345  1.00  0.00    -0.201 OA
BRANCH  16  19
ATOM     19  N   UNL     1      20.848 -23.250  -6.247  1.00  0.00    -0.280 N 
ATOM     20  H   UNL     1      20.605 -24.194  -6.537  1.00  0.00    +0.180 HD
BRANCH  19  21
ATOM     21  C   UNL     1      21.282 -22.335  -7.247  1.00  0.00    +0.049 A 
ATOM     22  C   UNL     1      20.679 -21.078  -7.319  1.00  0.00    +0.027 A 
ATOM     23  C   UNL     1      22.274 -22.687  -8.160  1.00  0.00    +0.027 A 
ATOM     24  C   UNL     1      21.066 -20.176  -8.312  1.00  0.00    +0.002 A 
ATOM     25  C   UNL     1      22.661 -21.784  -9.152  1.00  0.00    +0.002 A 
ATOM     26  C   UNL     1      22.057 -20.529  -9.228  1.00  0.00    +0.000 A 
ENDBRANCH  19  21
ENDBRANCH  16  19
ENDBRANCH  15  16
ENDBRANCH   2  10
BRANCH   6  27
ATOM     27  C   UNL     1      17.232 -19.252   1.934  1.00  0.00    +0.211 C 
BRANCH  27  28
ATOM     28  C   UNL     1      15.886 -19.305   2.653  1.00  0.00    +0.185 C 
ATOM     29  O   UNL     1      14.900 -18.675   2.263  1.00  0.00    -0.292 OA
BRANCH  28  30
ATOM     30  C   UNL     1      15.747 -20.153   3.870  1.00  0.00    +0.055 A 
ATOM     31  C   UNL     1      16.699 -21.161   4.097  1.00  0.00    +0.018 A 
ATOM     32  C   UNL     1      14.715 -19.983   4.799  1.00  0.00    +0.136 A 
ATOM     33  C   UNL     1      16.608 -21.980   5.225  1.00  0.00    +0.040 A 
ATOM     34  C   UNL     1      14.619 -20.797   5.925  1.00  0.00    +0.079 A 
ATOM     35  C   UNL     1      15.568 -21.790   6.127  1.00  0.00    +0.126 A 
ATOM     36  F   UNL     1      13.790 -19.026   4.641  1.00  0.00    -0.206 F 
ATOM     37  F   UNL     1      15.481 -22.574   7.208  1.00  0.00    -0.207 F 
ENDBRANCH  28  30
ENDBRANCH  27  28
ENDBRANCH   6  27
TORSDOF 7
ENDMDL
MODEL 6
REMARK VINA RESULT:    -8.477      2.828      5.137
REMARK INTER + INTRA:         -14.429
REMARK INTER:                 -13.889
REMARK INTRA:                  -0.541
REMARK UNBOUND:                -2.484
REMARK SMILES CC1(c2ccc(S(=O)(=O)Nc3ccccc3)cc2)NC(=O)N(CC(=O)c2ccc(F)cc2F)C1=O
REMARK SMILES IDX 1 1 2 2 19 3 20 4 21 5 22 6 34 7 35 8 3 10 4 11 18 12 5 13
REMARK SMILES IDX 17 14 6 15 7 16 8 17 9 18 10 19 11 21 12 22 16 23 13 24
REMARK SMILES IDX 15 25 14 26 23 27 24 28 25 29 26 30 27 31 32 32 28 33 31 34
REMARK SMILES IDX 29 35 33 36 30 37
REMARK H PARENT 19 9 10 20
ROOT
ATOM      1  C   UNL     1      17.531 -18.205  -0.998  1.00  0.00    +0.051 C 
ATOM      2  C   UNL     1      16.684 -19.306  -0.353  1.00  0.00    +0.144 C 
ATOM      3  N   UNL     1      15.863 -19.939  -1.367  1.00  0.00    -0.319 N 
ATOM      4  C   UNL     1      16.263 -21.222  -1.645  1.00  0.00    +0.325 C 
ATOM      5  O   UNL     1      15.792 -21.904  -2.539  1.00  0.00    -0.248 OA
ATOM      6  N   UNL     1      17.251 -21.567  -0.781  1.00  0.00    -0.254 N 
ATOM      7  C   UNL     1      17.592 -20.507   0.011  1.00  0.00    +0.261 C 
ATOM      8  O   UNL     1      18.490 -20.503   0.846  1.00  0.00    -0.271 OA
ATOM      9  H   UNL     1      15.222 -19.459  -1.983  1.00  0.00    +0.166 HD
ENDROOT
BRANCH   2  10
ATOM     10  C   UNL     1      15.876 -18.799   0.840  1.00  0.00    -0.013 A 
ATOM     11  C   UNL     1      15.278 -17.524   0.794  1.00  0.00    +0.008 A 
ATOM     12  C   UNL     1      15.700 -19.565   2.008  1.00  0.00    +0.008 A 
ATOM     13  C   UNL     1      14.528 -17.033   1.865  1.00  0.00    +0.022 A 
ATOM     14  C   UNL     1      14.947 -19.083   3.083  1.00  0.00    +0.022 A 
ATOM     15  C   UNL     1      14.351 -17.825   2.999  1.00  0.00    +0.087 A 
BRANCH  15  16
ATOM     16  S   UNL     1      13.405 -17.207   4.373  1.00  0.00    +0.261 S 
ATOM     17  O   UNL     1      14.294 -16.396   5.180  1.00  0.00    -0.201 OA
ATOM     18  O   UNL     1      12.163 -16.671   3.863  1.00  0.00    -0.201 OA
BRANCH  16  19
ATOM     19  N   UNL     1      13.095 -18.597   5.280  1.00  0.00    -0.280 N 
ATOM     20  H   UNL     1      12.302 -18.477   5.906  1.00  0.00    +0.180 HD
BRANCH  19  21
ATOM     21  C   UNL     1      14.181 -19.403   5.723  1.00  0.00    +0.049 A 
ATOM     22  C   UNL     1      15.316 -18.779   6.243  1.00  0.00    +0.027 A 
ATOM     23  C   UNL     1      14.131 -20.792   5.622  1.00  0.00    +0.027 A 
ATOM     24  C   UNL     1      16.406 -19.548   6.654  1.00  0.00    +0.002 A 
ATOM     25  C   UNL     1      15.222 -21.560   6.034  1.00  0.00    +0.002 A 
ATOM     26  C   UNL     1      16.359 -20.937   6.549  1.00  0.00    +0.000 A 
ENDBRANCH  19  21
ENDBRANCH  16  19
ENDBRANCH  15  16
ENDBRANCH   2  10
BRANCH   6  27
ATOM     27  C   UNL     1      17.974 -22.817  -0.835  1.00  0.00    +0.211 C 
BRANCH  27  28
ATOM     28  C   UNL     1      17.441 -23.741   0.258  1.00  0.00    +0.185 C 
ATOM     29  O   UNL     1      16.545 -24.564   0.052  1.00  0.00    -0.292 OA
BRANCH  28  30
ATOM     30  C   UNL     1      18.023 -23.657   1.627  1.00  0.00    +0.055 A 
ATOM     31  C   UNL     1      19.366 -24.028   1.808  1.00  0.00    +0.018 A 
ATOM     32  C   UNL     1      17.292 -23.219   2.736  1.00  0.00    +0.136 A 
ATOM     33  C   UNL     1      19.953 -23.965   3.074  1.00  0.00    +0.040 A 
ATOM     34  C   UNL     1      17.872 -23.155   4.000  1.00  0.00    +0.079 A 
ATOM     35  C   UNL     1      19.199 -23.530   4.158  1.00  0.00    +0.126 A 
ATOM     36  F   UNL     1      16.013 -22.836   2.617  1.00  0.00    -0.206 F 
ATOM     37  F   UNL     1      19.761 -23.469   5.370  1.00  0.00    -0.207 F 
ENDBRANCH  28  30
ENDBRANCH  27  28
ENDBRANCH   6  27
TORSDOF 7
ENDMDL
MODEL 7
REMARK VINA RESULT:    -8.306      4.181      7.255
REMARK INTER + INTRA:         -14.189
REMARK INTER:                 -13.501
REMARK INTRA:                  -0.688
REMARK UNBOUND:                -2.484
REMARK SMILES CC1(c2ccc(S(=O)(=O)Nc3ccccc3)cc2)NC(=O)N(CC(=O)c2ccc(F)cc2F)C1=O
REMARK SMILES IDX 1 1 2 2 19 3 20 4 21 5 22 6 34 7 35 8 3 10 4 11 18 12 5 13
REMARK SMILES IDX 17 14 6 15 7 16 8 17 9 18 10 19 11 21 12 22 16 23 13 24
REMARK SMILES IDX 15 25 14 26 23 27 24 28 25 29 26 30 27 31 32 32 28 33 31 34
REMARK SMILES IDX 29 35 33 36 30 37
REMARK H PARENT 19 9 10 20
ROOT
ATOM      1  C   UNL     1      18.298 -22.419  -2.321  1.00  0.00    +0.051 C 
ATOM      2  C   UNL     1      18.480 -21.530  -1.088  1.00  0.00    +0.144 C 
ATOM      3  N   UNL     1      18.840 -20.189  -1.509  1.00  0.00    -0.319 N 
ATOM      4  C   UNL     1      17.836 -19.280  -1.290  1.00  0.00    +0.325 C 
ATOM      5  O   UNL     1      17.872 -18.121  -1.666  1.00  0.00    -0.248 OA
ATOM      6  N   UNL     1      16.831 -19.894  -0.617  1.00  0.00    -0.254 N 
ATOM      7  C   UNL     1      17.097 -21.226  -0.463  1.00  0.00    +0.261 C 
ATOM      8  O   UNL     1      16.346 -22.045   0.056  1.00  0.00    -0.271 OA
ATOM      9  H   UNL     1      19.621 -19.955  -2.105  1.00  0.00    +0.166 HD
ENDROOT
BRANCH   2  10
ATOM     10  C   UNL     1      19.463 -22.123  -0.080  1.00  0.00    -0.013 A 
ATOM     11  C   UNL     1      19.474 -21.657   1.249  1.00  0.00    +0.008 A 
ATOM     12  C   UNL     1      20.377 -23.135  -0.429  1.00  0.00    +0.008 A 
ATOM     13  C   UNL     1      20.355 -22.182   2.197  1.00  0.00    +0.022 A 
ATOM     14  C   UNL     1      21.260 -23.669   0.515  1.00  0.00    +0.022 A 
ATOM     15  C   UNL     1      21.233 -23.201   1.829  1.00  0.00    +0.087 A 
BRANCH  15  16
ATOM     16  S   UNL     1      22.366 -23.871   3.025  1.00  0.00    +0.261 S 
ATOM     17  O   UNL     1      21.624 -24.087   4.250  1.00  0.00    -0.201 OA
ATOM     18  O   UNL     1      23.101 -24.948   2.398  1.00  0.00    -0.201 OA
BRANCH  16  19
ATOM     19  N   UNL     1      23.406 -22.578   3.334  1.00  0.00    -0.280 N 
ATOM     20  H   UNL     1      23.762 -22.160   2.478  1.00  0.00    +0.180 HD
BRANCH  19  21
ATOM     21  C   UNL     1      24.269 -22.625   4.464  1.00  0.00    +0.049 A 
ATOM     22  C   UNL     1      24.620 -23.869   4.993  1.00  0.00    +0.027 A 
ATOM     23  C   UNL     1      24.743 -21.456   5.055  1.00  0.00    +0.027 A 
ATOM     24  C   UNL     1      25.440 -23.939   6.121  1.00  0.00    +0.002 A 
ATOM     25  C   UNL     1      25.563 -21.528   6.183  1.00  0.00    +0.002 A 
ATOM     26  C   UNL     1      25.911 -22.769   6.715  1.00  0.00    +0.000 A 
ENDBRANCH  19  21
ENDBRANCH  16  19
ENDBRANCH  15  16
ENDBRANCH   2  10
BRANCH   6  27
ATOM     27  C   UNL     1      15.571 -19.267  -0.291  1.00  0.00    +0.211 C 
BRANCH  27  28
ATOM     28  C   UNL     1      15.796 -18.269   0.842  1.00  0.00    +0.185 C 
ATOM     29  O   UNL     1      16.291 -17.154   0.657  1.00  0.00    -0.292 OA
BRANCH  28  30
ATOM     30  C   UNL     1      15.402 -18.645   2.229  1.00  0.00    +0.055 A 
ATOM     31  C   UNL     1      14.282 -18.019   2.800  1.00  0.00    +0.018 A 
ATOM     32  C   UNL     1      16.095 -19.599   2.982  1.00  0.00    +0.136 A 
ATOM     33  C   UNL     1      13.876 -18.340   4.098  1.00  0.00    +0.040 A 
ATOM     34  C   UNL     1      15.695 -19.922   4.276  1.00  0.00    +0.079 A 
ATOM     35  C   UNL     1      14.588 -19.288   4.823  1.00  0.00    +0.126 A 
ATOM     36  F   UNL     1      17.159 -20.239   2.480  1.00  0.00    -0.206 F 
ATOM     37  F   UNL     1      14.199 -19.597   6.065  1.00  0.00    -0.207 F 
ENDBRANCH  28  30
ENDBRANCH  27  28
ENDBRANCH   6  27
TORSDOF 7
ENDMDL
MODEL 8
REMARK VINA RESULT:    -8.095      4.219      9.274
REMARK INTER + INTRA:         -13.892
REMARK INTER:                 -12.680
REMARK INTRA:                  -1.212
REMARK UNBOUND:                -2.484
REMARK SMILES CC1(c2ccc(S(=O)(=O)Nc3ccccc3)cc2)NC(=O)N(CC(=O)c2ccc(F)cc2F)C1=O
REMARK SMILES IDX 1 1 2 2 19 3 20 4 21 5 22 6 34 7 35 8 3 10 4 11 18 12 5 13
REMARK SMILES IDX 17 14 6 15 7 16 8 17 9 18 10 19 11 21 12 22 16 23 13 24
REMARK SMILES IDX 15 25 14 26 23 27 24 28 25 29 26 30 27 31 32 32 28 33 31 34
REMARK SMILES IDX 29 35 33 36 30 37
REMARK H PARENT 19 9 10 20
ROOT
ATOM      1  C   UNL     1      22.112 -23.675   1.065  1.00  0.00    +0.051 C 
ATOM      2  C   UNL     1      20.685 -23.415   0.573  1.00  0.00    +0.144 C 
ATOM      3  N   UNL     1      19.865 -24.583   0.830  1.00  0.00    -0.319 N 
ATOM      4  C   UNL     1      18.937 -24.369   1.817  1.00  0.00    +0.325 C 
ATOM      5  O   UNL     1      18.217 -25.240   2.277  1.00  0.00    -0.248 OA
ATOM      6  N   UNL     1      18.979 -23.062   2.180  1.00  0.00    -0.254 N 
ATOM      7  C   UNL     1      19.987 -22.412   1.524  1.00  0.00    +0.261 C 
ATOM      8  O   UNL     1      20.302 -21.239   1.691  1.00  0.00    -0.271 OA
ATOM      9  H   UNL     1      20.071 -25.521   0.516  1.00  0.00    +0.166 HD
ENDROOT
BRANCH   2  10
ATOM     10  C   UNL     1      20.643 -22.965  -0.887  1.00  0.00    -0.013 A 
ATOM     11  C   UNL     1      19.413 -22.625  -1.483  1.00  0.00    +0.008 A 
ATOM     12  C   UNL     1      21.804 -22.876  -1.679  1.00  0.00    +0.008 A 
ATOM     13  C   UNL     1      19.340 -22.204  -2.813  1.00  0.00    +0.022 A 
ATOM     14  C   UNL     1      21.740 -22.452  -3.010  1.00  0.00    +0.022 A 
ATOM     15  C   UNL     1      20.509 -22.102  -3.565  1.00  0.00    +0.087 A 
BRANCH  15  16
ATOM     16  S   UNL     1      20.429 -21.576  -5.263  1.00  0.00    +0.261 S 
ATOM     17  O   UNL     1      20.442 -22.768  -6.086  1.00  0.00    -0.201 OA
ATOM     18  O   UNL     1      19.370 -20.598  -5.384  1.00  0.00    -0.201 OA
BRANCH  16  19
ATOM     19  N   UNL     1      21.923 -20.829  -5.503  1.00  0.00    -0.280 N 
ATOM     20  H   UNL     1      22.057 -20.033  -4.885  1.00  0.00    +0.180 HD
BRANCH  19  21
ATOM     21  C   UNL     1      22.468 -20.755  -6.816  1.00  0.00    +0.049 A 
ATOM     22  C   UNL     1      23.649 -21.443  -7.096  1.00  0.00    +0.027 A 
ATOM     23  C   UNL     1      21.853 -19.990  -7.806  1.00  0.00    +0.027 A 
ATOM     24  C   UNL     1      24.219 -21.359  -8.368  1.00  0.00    +0.002 A 
ATOM     25  C   UNL     1      22.424 -19.907  -9.077  1.00  0.00    +0.002 A 
ATOM     26  C   UNL     1      23.607 -20.591  -9.358  1.00  0.00    +0.000 A 
ENDBRANCH  19  21
ENDBRANCH  16  19
ENDBRANCH  15  16
ENDBRANCH   2  10
BRANCH   6  27
ATOM     27  C   UNL     1      18.201 -22.494   3.256  1.00  0.00    +0.211 C 
BRANCH  27  28
ATOM     28  C   UNL     1      16.965 -21.818   2.666  1.00  0.00    +0.185 C 
ATOM     29  O   UNL     1      16.712 -21.836   1.459  1.00  0.00    -0.292 OA
BRANCH  28  30
ATOM     30  C   UNL     1      16.019 -21.113   3.577  1.00  0.00    +0.055 A 
ATOM     31  C   UNL     1      15.352 -21.862   4.560  1.00  0.00    +0.018 A 
ATOM     32  C   UNL     1      15.774 -19.738   3.498  1.00  0.00    +0.136 A 
ATOM     33  C   UNL     1      14.457 -21.243   5.435  1.00  0.00    +0.040 A 
ATOM     34  C   UNL     1      14.882 -19.116   4.368  1.00  0.00    +0.079 A 
ATOM     35  C   UNL     1      14.230 -19.876   5.329  1.00  0.00    +0.126 A 
ATOM     36  F   UNL     1      16.396 -18.973   2.591  1.00  0.00    -0.206 F 
ATOM     37  F   UNL     1      13.373 -19.282   6.168  1.00  0.00    -0.207 F 
ENDBRANCH  28  30
ENDBRANCH  27  28
ENDBRANCH   6  27
TORSDOF 7
ENDMDL
MODEL 9
REMARK VINA RESULT:    -7.968      2.639      3.917
REMARK INTER + INTRA:         -13.712
REMARK INTER:                 -13.054
REMARK INTRA:                  -0.658
REMARK UNBOUND:                -2.484
REMARK SMILES CC1(c2ccc(S(=O)(=O)Nc3ccccc3)cc2)NC(=O)N(CC(=O)c2ccc(F)cc2F)C1=O
REMARK SMILES IDX 1 1 2 2 19 3 20 4 21 5 22 6 34 7 35 8 3 10 4 11 18 12 5 13
REMARK SMILES IDX 17 14 6 15 7 16 8 17 9 18 10 19 11 21 12 22 16 23 13 24
REMARK SMILES IDX 15 25 14 26 23 27 24 28 25 29 26 30 27 31 32 32 28 33 31 34
REMARK SMILES IDX 29 35 33 36 30 37
REMARK H PARENT 19 9 10 20
ROOT
ATOM      1  C   UNL     1      18.362 -25.153   0.792  1.00  0.00    +0.051 C 
ATOM      2  C   UNL     1      18.758 -23.698   1.057  1.00  0.00    +0.144 C 
ATOM      3  N   UNL     1      20.200 -23.604   1.178  1.00  0.00    -0.319 N 
ATOM      4  C   UNL     1      20.777 -22.953   0.117  1.00  0.00    +0.325 C 
ATOM      5  O   UNL     1      21.981 -22.856  -0.050  1.00  0.00    -0.248 OA
ATOM      6  N   UNL     1      19.795 -22.471  -0.686  1.00  0.00    -0.254 N 
ATOM      7  C   UNL     1      18.567 -22.869  -0.237  1.00  0.00    +0.261 C 
ATOM      8  O   UNL     1      17.498 -22.633  -0.790  1.00  0.00    -0.271 OA
ATOM      9  H   UNL     1      20.768 -24.139   1.820  1.00  0.00    +0.166 HD
ENDROOT
BRANCH   2  10
ATOM     10  C   UNL     1      18.018 -23.099   2.251  1.00  0.00    -0.013 A 
ATOM     11  C   UNL     1      18.734 -22.716   3.403  1.00  0.00    +0.008 A 
ATOM     12  C   UNL     1      16.622 -22.912   2.253  1.00  0.00    +0.008 A 
ATOM     13  C   UNL     1      18.088 -22.160   4.510  1.00  0.00    +0.022 A 
ATOM     14  C   UNL     1      15.969 -22.352   3.356  1.00  0.00    +0.022 A 
ATOM     15  C   UNL     1      16.708 -21.964   4.473  1.00  0.00    +0.087 A 
BRANCH  15  16
ATOM     16  S   UNL     1      15.874 -21.266   5.880  1.00  0.00    +0.261 S 
ATOM     17  O   UNL     1      15.706 -22.325   6.853  1.00  0.00    -0.201 OA
ATOM     18  O   UNL     1      16.536 -20.028   6.231  1.00  0.00    -0.201 OA
BRANCH  16  19
ATOM     19  N   UNL     1      14.330 -20.935   5.284  1.00  0.00    -0.280 N 
ATOM     20  H   UNL     1      14.033 -21.616   4.589  1.00  0.00    +0.180 HD
BRANCH  19  21
ATOM     21  C   UNL     1      13.918 -19.583   5.112  1.00  0.00    +0.049 A 
ATOM     22  C   UNL     1      14.297 -18.905   3.952  1.00  0.00    +0.027 A 
ATOM     23  C   UNL     1      13.170 -18.931   6.090  1.00  0.00    +0.027 A 
ATOM     24  C   UNL     1      13.932 -17.569   3.776  1.00  0.00    +0.002 A 
ATOM     25  C   UNL     1      12.805 -17.595   5.913  1.00  0.00    +0.002 A 
ATOM     26  C   UNL     1      13.187 -16.914   4.757  1.00  0.00    +0.000 A 
ENDBRANCH  19  21
ENDBRANCH  16  19
ENDBRANCH  15  16
ENDBRANCH   2  10
BRANCH   6  27
ATOM     27  C   UNL     1      20.032 -21.805  -1.946  1.00  0.00    +0.211 C 
BRANCH  27  28
ATOM     28  C   UNL     1      20.470 -22.843  -2.976  1.00  0.00    +0.185 C 
ATOM     29  O   UNL     1      20.566 -24.043  -2.710  1.00  0.00    -0.292 OA
BRANCH  28  30
ATOM     30  C   UNL     1      20.793 -22.399  -4.362  1.00  0.00    +0.055 A 
ATOM     31  C   UNL     1      20.138 -23.025  -5.435  1.00  0.00    +0.018 A 
ATOM     32  C   UNL     1      21.713 -21.382  -4.637  1.00  0.00    +0.136 A 
ATOM     33  C   UNL     1      20.409 -22.641  -6.751  1.00  0.00    +0.040 A 
ATOM     34  C   UNL     1      21.987 -20.996  -5.946  1.00  0.00    +0.079 A 
ATOM     35  C   UNL     1      21.332 -21.630  -6.993  1.00  0.00    +0.126 A 
ATOM     36  F   UNL     1      22.353 -20.739  -3.651  1.00  0.00    -0.206 F 
ATOM     37  F   UNL     1      21.592 -21.262  -8.252  1.00  0.00    -0.207 F 
ENDBRANCH  28  30
ENDBRANCH  27  28
ENDBRANCH   6  27
TORSDOF 7
ENDMDL
