MODEL 1
REMARK VINA RESULT:    -8.314      0.000      0.000
REMARK INTER + INTRA:         -10.741
REMARK INTER:                 -10.258
REMARK INTRA:                  -0.483
REMARK UNBOUND:                -0.483
REMARK SMILES CC1(c2ccc(C#N)cc2)NC(=O)N(CC(=O)c2ccc(Cl)s2)C1=O
REMARK SMILES IDX 16 1 17 2 15 3 14 4 2 5 11 6 24 7 12 8 25 9 13 10 1 11 3 13
REMARK SMILES IDX 4 14 10 15 5 16 9 17 6 18 7 19 8 20 18 21 19 22 23 23 20 24
REMARK SMILES IDX 21 25 22 26
REMARK H PARENT 11 12
ROOT
ATOM      1  C   UNL     1      16.130 -18.992   1.716  1.00  0.00    +0.192 C 
ATOM      2  O   UNL     1      17.253 -19.312   2.111  1.00  0.00    -0.291 OA
ENDROOT
BRANCH   1   3
ATOM      3  C   UNL     1      15.736 -19.163   0.244  1.00  0.00    +0.212 C 
BRANCH   3   4
ATOM      4  N   UNL     1      16.795 -19.825  -0.485  1.00  0.00    -0.254 N 
ATOM      5  C   UNL     1      18.365 -21.440  -1.214  1.00  0.00    +0.144 C 
ATOM      6  N   UNL     1      18.653 -20.095  -1.671  1.00  0.00    -0.319 N 
ATOM      7  C   UNL     1      17.086 -21.158  -0.388  1.00  0.00    +0.261 C 
ATOM      8  C   UNL     1      17.748 -19.173  -1.202  1.00  0.00    +0.325 C 
ATOM      9  O   UNL     1      16.429 -21.984   0.233  1.00  0.00    -0.271 OA
ATOM     10  O   UNL     1      17.821 -17.973  -1.400  1.00  0.00    -0.248 OA
ATOM     11  C   UNL     1      17.958 -22.301  -2.416  1.00  0.00    +0.051 C 
ATOM     12  H   UNL     1      19.505 -19.803  -2.129  1.00  0.00    +0.166 HD
BRANCH   5  13
ATOM     13  C   UNL     1      19.511 -21.973  -0.357  1.00  0.00    -0.013 A 
ATOM     14  C   UNL     1      19.658 -21.635   1.000  1.00  0.00    +0.008 A 
ATOM     15  C   UNL     1      20.466 -22.847  -0.915  1.00  0.00    +0.008 A 
ATOM     16  C   UNL     1      20.717 -22.142   1.763  1.00  0.00    +0.020 A 
ATOM     17  C   UNL     1      21.525 -23.354  -0.155  1.00  0.00    +0.020 A 
ATOM     18  C   UNL     1      21.654 -23.002   1.188  1.00  0.00    +0.052 A 
ATOM     19  C   UNL     1      22.736 -23.519   1.972  1.00  0.00    +0.099 C 
ATOM     20  N   UNL     1      23.609 -23.937   2.615  1.00  0.00    -0.192 NA
ENDBRANCH   5  13
ENDBRANCH   3   4
ENDBRANCH   1   3
BRANCH   1  21
ATOM     21  C   UNL     1      15.096 -18.443   2.592  1.00  0.00    +0.074 A 
ATOM     22  C   UNL     1      14.235 -17.374   2.395  1.00  0.00    +0.025 A 
ATOM     23  S   UNL     1      14.829 -19.170   4.130  1.00  0.00    -0.120 S 
ATOM     24  C   UNL     1      13.364 -17.160   3.508  1.00  0.00    +0.033 A 
ATOM     25  C   UNL     1      13.600 -18.074   4.501  1.00  0.00    +0.094 A 
ATOM     26 Cl   UNL     1      12.784 -18.180   6.008  1.00  0.00    -0.072 Cl
ENDBRANCH   1  21
TORSDOF 4
ENDMDL
MODEL 2
REMARK VINA RESULT:    -8.210      3.591      6.624
REMARK INTER + INTRA:         -10.612
REMARK INTER:                  -9.471
REMARK INTRA:                  -1.142
REMARK UNBOUND:                -0.483
REMARK SMILES CC1(c2ccc(C#N)cc2)NC(=O)N(CC(=O)c2ccc(Cl)s2)C1=O
REMARK SMILES IDX 16 1 17 2 15 3 14 4 2 5 11 6 24 7 12 8 25 9 13 10 1 11 3 13
REMARK SMILES IDX 4 14 10 15 5 16 9 17 6 18 7 19 8 20 18 21 19 22 23 23 20 24
REMARK SMILES IDX 21 25 22 26
REMARK H PARENT 11 12
ROOT
ATOM      1  C   UNL     1      19.338 -22.953  -0.885  1.00  0.00    +0.192 C 
ATOM      2  O   UNL     1      20.406 -22.873  -1.496  1.00  0.00    -0.291 OA
ENDROOT
BRANCH   1   3
ATOM      3  C   UNL     1      19.148 -23.985   0.234  1.00  0.00    +0.212 C 
BRANCH   3   4
ATOM      4  N   UNL     1      18.892 -23.320   1.491  1.00  0.00    -0.254 N 
ATOM      5  C   UNL     1      17.787 -22.371   3.358  1.00  0.00    +0.144 C 
ATOM      6  N   UNL     1      19.165 -21.945   3.213  1.00  0.00    -0.319 N 
ATOM      7  C   UNL     1      17.677 -23.295   2.120  1.00  0.00    +0.261 C 
ATOM      8  C   UNL     1      19.769 -22.481   2.101  1.00  0.00    +0.325 C 
ATOM      9  O   UNL     1      16.683 -23.918   1.769  1.00  0.00    -0.271 OA
ATOM     10  O   UNL     1      20.902 -22.218   1.739  1.00  0.00    -0.248 OA
ATOM     11  C   UNL     1      17.665 -23.253   4.606  1.00  0.00    +0.051 C 
ATOM     12  H   UNL     1      19.607 -21.205   3.741  1.00  0.00    +0.166 HD
BRANCH   5  13
ATOM     13  C   UNL     1      16.843 -21.173   3.281  1.00  0.00    -0.013 A 
ATOM     14  C   UNL     1      15.884 -20.903   4.272  1.00  0.00    +0.008 A 
ATOM     15  C   UNL     1      16.921 -20.280   2.192  1.00  0.00    +0.008 A 
ATOM     16  C   UNL     1      15.034 -19.794   4.177  1.00  0.00    +0.020 A 
ATOM     17  C   UNL     1      16.072 -19.172   2.095  1.00  0.00    +0.020 A 
ATOM     18  C   UNL     1      15.125 -18.926   3.087  1.00  0.00    +0.052 A 
ATOM     19  C   UNL     1      14.253 -17.793   2.993  1.00  0.00    +0.099 C 
ATOM     20  N   UNL     1      13.547 -16.874   2.925  1.00  0.00    -0.192 NA
ENDBRANCH   5  13
ENDBRANCH   3   4
ENDBRANCH   1   3
BRANCH   1  21
ATOM     21  C   UNL     1      18.190 -22.090  -1.158  1.00  0.00    +0.074 A 
ATOM     22  C   UNL     1      18.101 -20.707  -1.189  1.00  0.00    +0.025 A 
ATOM     23  S   UNL     1      16.666 -22.811  -1.506  1.00  0.00    -0.120 S 
ATOM     24  C   UNL     1      16.782 -20.250  -1.499  1.00  0.00    +0.033 A 
ATOM     25  C   UNL     1      15.927 -21.304  -1.688  1.00  0.00    +0.094 A 
ATOM     26 Cl   UNL     1      14.257 -21.210  -2.077  1.00  0.00    -0.072 Cl
ENDBRANCH   1  21
TORSDOF 4
ENDMDL
MODEL 3
REMARK VINA RESULT:    -8.077      3.654      6.657
REMARK INTER + INTRA:         -10.449
REMARK INTER:                  -9.549
REMARK INTRA:                  -0.900
REMARK UNBOUND:                -0.483
REMARK SMILES CC1(c2ccc(C#N)cc2)NC(=O)N(CC(=O)c2ccc(Cl)s2)C1=O
REMARK SMILES IDX 16 1 17 2 15 3 14 4 2 5 11 6 24 7 12 8 25 9 13 10 1 11 3 13
REMARK SMILES IDX 4 14 10 15 5 16 9 17 6 18 7 19 8 20 18 21 19 22 23 23 20 24
REMARK SMILES IDX 21 25 22 26
REMARK H PARENT 11 12
ROOT
ATOM      1  C   UNL     1      17.211 -24.102   0.143  1.00  0.00    +0.192 C 
ATOM      2  O   UNL     1      16.218 -24.787  -0.115  1.00  0.00    -0.291 OA
ENDROOT
BRANCH   1   3
ATOM      3  C   UNL     1      17.832 -23.187  -0.920  1.00  0.00    +0.212 C 
BRANCH   3   4
ATOM      4  N   UNL     1      17.248 -21.866  -0.848  1.00  0.00    -0.254 N 
ATOM      5  C   UNL     1      16.728 -19.664  -0.151  1.00  0.00    +0.144 C 
ATOM      6  N   UNL     1      15.761 -20.232  -1.070  1.00  0.00    -0.319 N 
ATOM      7  C   UNL     1      17.702 -20.862  -0.036  1.00  0.00    +0.261 C 
ATOM      8  C   UNL     1      16.068 -21.523  -1.426  1.00  0.00    +0.325 C 
ATOM      9  O   UNL     1      18.718 -20.906   0.646  1.00  0.00    -0.271 OA
ATOM     10  O   UNL     1      15.370 -22.226  -2.136  1.00  0.00    -0.248 OA
ATOM     11  C   UNL     1      17.478 -18.526  -0.854  1.00  0.00    +0.051 C 
ATOM     12  H   UNL     1      14.865 -19.826  -1.299  1.00  0.00    +0.166 HD
BRANCH   5  13
ATOM     13  C   UNL     1      16.065 -19.317   1.180  1.00  0.00    -0.013 A 
ATOM     14  C   UNL     1      16.314 -20.044   2.358  1.00  0.00    +0.008 A 
ATOM     15  C   UNL     1      15.175 -18.227   1.266  1.00  0.00    +0.008 A 
ATOM     16  C   UNL     1      15.694 -19.701   3.566  1.00  0.00    +0.020 A 
ATOM     17  C   UNL     1      14.555 -17.884   2.472  1.00  0.00    +0.020 A 
ATOM     18  C   UNL     1      14.812 -18.621   3.626  1.00  0.00    +0.052 A 
ATOM     19  C   UNL     1      14.180 -18.273   4.864  1.00  0.00    +0.099 C 
ATOM     20  N   UNL     1      13.675 -17.994   5.872  1.00  0.00    -0.192 NA
ENDBRANCH   5  13
ENDBRANCH   3   4
ENDBRANCH   1   3
BRANCH   1  21
ATOM     21  C   UNL     1      17.865 -24.095   1.450  1.00  0.00    +0.074 A 
ATOM     22  C   UNL     1      17.348 -23.814   2.705  1.00  0.00    +0.025 A 
ATOM     23  S   UNL     1      19.540 -24.484   1.550  1.00  0.00    -0.120 S 
ATOM     24  C   UNL     1      18.330 -23.920   3.739  1.00  0.00    +0.033 A 
ATOM     25  C   UNL     1      19.549 -24.276   3.226  1.00  0.00    +0.094 A 
ATOM     26 Cl   UNL     1      21.001 -24.514   4.110  1.00  0.00    -0.072 Cl
ENDBRANCH   1  21
TORSDOF 4
ENDMDL
MODEL 4
REMARK VINA RESULT:    -8.026      3.877      6.582
REMARK INTER + INTRA:         -10.385
REMARK INTER:                  -9.361
REMARK INTRA:                  -1.024
REMARK UNBOUND:                -0.483
REMARK SMILES CC1(c2ccc(C#N)cc2)NC(=O)N(CC(=O)c2ccc(Cl)s2)C1=O
REMARK SMILES IDX 16 1 17 2 15 3 14 4 2 5 11 6 24 7 12 8 25 9 13 10 1 11 3 13
REMARK SMILES IDX 4 14 10 15 5 16 9 17 6 18 7 19 8 20 18 21 19 22 23 23 20 24
REMARK SMILES IDX 21 25 22 26
REMARK H PARENT 11 12
ROOT
ATOM      1  C   UNL     1      17.025 -22.948  -0.583  1.00  0.00    +0.192 C 
ATOM      2  O   UNL     1      16.155 -23.742  -0.948  1.00  0.00    -0.291 OA
ENDROOT
BRANCH   1   3
ATOM      3  C   UNL     1      18.347 -23.449   0.012  1.00  0.00    +0.212 C 
BRANCH   3   4
ATOM      4  N   UNL     1      18.443 -23.078   1.406  1.00  0.00    -0.254 N 
ATOM      5  C   UNL     1      17.921 -22.726   3.689  1.00  0.00    +0.144 C 
ATOM      6  N   UNL     1      19.077 -21.981   3.230  1.00  0.00    -0.319 N 
ATOM      7  C   UNL     1      17.535 -23.433   2.366  1.00  0.00    +0.261 C 
ATOM      8  C   UNL     1      19.333 -22.174   1.894  1.00  0.00    +0.325 C 
ATOM      9  O   UNL     1      16.593 -24.197   2.202  1.00  0.00    -0.271 OA
ATOM     10  O   UNL     1      20.213 -21.605   1.272  1.00  0.00    -0.248 OA
ATOM     11  C   UNL     1      18.381 -23.808   4.673  1.00  0.00    +0.051 C 
ATOM     12  H   UNL     1      19.552 -21.259   3.753  1.00  0.00    +0.166 HD
BRANCH   5  13
ATOM     13  C   UNL     1      16.833 -21.777   4.186  1.00  0.00    -0.013 A 
ATOM     14  C   UNL     1      16.431 -20.644   3.457  1.00  0.00    +0.008 A 
ATOM     15  C   UNL     1      16.182 -22.027   5.411  1.00  0.00    +0.008 A 
ATOM     16  C   UNL     1      15.428 -19.792   3.936  1.00  0.00    +0.020 A 
ATOM     17  C   UNL     1      15.179 -21.177   5.891  1.00  0.00    +0.020 A 
ATOM     18  C   UNL     1      14.799 -20.056   5.154  1.00  0.00    +0.052 A 
ATOM     19  C   UNL     1      13.772 -19.183   5.641  1.00  0.00    +0.099 C 
ATOM     20  N   UNL     1      12.938 -18.473   6.027  1.00  0.00    -0.192 NA
ENDBRANCH   5  13
ENDBRANCH   3   4
ENDBRANCH   1   3
BRANCH   1  21
ATOM     21  C   UNL     1      16.883 -21.496  -0.686  1.00  0.00    +0.074 A 
ATOM     22  C   UNL     1      15.849 -20.670  -0.274  1.00  0.00    +0.025 A 
ATOM     23  S   UNL     1      18.146 -20.582  -1.417  1.00  0.00    -0.120 S 
ATOM     24  C   UNL     1      16.102 -19.292  -0.563  1.00  0.00    +0.033 A 
ATOM     25  C   UNL     1      17.314 -19.132  -1.180  1.00  0.00    +0.094 A 
ATOM     26 Cl   UNL     1      18.010 -17.651  -1.700  1.00  0.00    -0.072 Cl
ENDBRANCH   1  21
TORSDOF 4
ENDMDL
MODEL 5
REMARK VINA RESULT:    -7.925      4.668      7.992
REMARK INTER + INTRA:         -10.261
REMARK INTER:                  -9.523
REMARK INTRA:                  -0.738
REMARK UNBOUND:                -0.483
REMARK SMILES CC1(c2ccc(C#N)cc2)NC(=O)N(CC(=O)c2ccc(Cl)s2)C1=O
REMARK SMILES IDX 16 1 17 2 15 3 14 4 2 5 11 6 24 7 12 8 25 9 13 10 1 11 3 13
REMARK SMILES IDX 4 14 10 15 5 16 9 17 6 18 7 19 8 20 18 21 19 22 23 23 20 24
REMARK SMILES IDX 21 25 22 26
REMARK H PARENT 11 12
ROOT
ATOM      1  C   UNL     1      19.253 -23.500  -0.605  1.00  0.00    +0.192 C 
ATOM      2  O   UNL     1      19.278 -24.656  -0.174  1.00  0.00    -0.291 OA
ENDROOT
BRANCH   1   3
ATOM      3  C   UNL     1      18.202 -22.499  -0.109  1.00  0.00    +0.212 C 
BRANCH   3   4
ATOM      4  N   UNL     1      18.195 -22.453   1.336  1.00  0.00    -0.254 N 
ATOM      5  C   UNL     1      17.486 -22.540   3.594  1.00  0.00    +0.144 C 
ATOM      6  N   UNL     1      18.754 -21.864   3.403  1.00  0.00    -0.319 N 
ATOM      7  C   UNL     1      17.162 -22.890   2.120  1.00  0.00    +0.261 C 
ATOM      8  C   UNL     1      19.122 -21.795   2.081  1.00  0.00    +0.325 C 
ATOM      9  O   UNL     1      16.166 -23.476   1.717  1.00  0.00    -0.271 OA
ATOM     10  O   UNL     1      20.115 -21.220   1.672  1.00  0.00    -0.248 OA
ATOM     11  C   UNL     1      17.727 -23.858   4.339  1.00  0.00    +0.051 C 
ATOM     12  H   UNL     1      19.248 -21.338   4.110  1.00  0.00    +0.166 HD
BRANCH   5  13
ATOM     13  C   UNL     1      16.459 -21.591   4.209  1.00  0.00    -0.013 A 
ATOM     14  C   UNL     1      15.730 -21.917   5.366  1.00  0.00    +0.008 A 
ATOM     15  C   UNL     1      16.220 -20.331   3.624  1.00  0.00    +0.008 A 
ATOM     16  C   UNL     1      14.797 -21.026   5.911  1.00  0.00    +0.020 A 
ATOM     17  C   UNL     1      15.288 -19.439   4.167  1.00  0.00    +0.020 A 
ATOM     18  C   UNL     1      14.573 -19.785   5.312  1.00  0.00    +0.052 A 
ATOM     19  C   UNL     1      13.618 -18.875   5.872  1.00  0.00    +0.099 C 
ATOM     20  N   UNL     1      12.845 -18.141   6.335  1.00  0.00    -0.192 NA
ENDBRANCH   5  13
ENDBRANCH   3   4
ENDBRANCH   1   3
BRANCH   1  21
ATOM     21  C   UNL     1      20.200 -22.991  -1.595  1.00  0.00    +0.074 A 
ATOM     22  C   UNL     1      21.586 -23.023  -1.603  1.00  0.00    +0.025 A 
ATOM     23  S   UNL     1      19.596 -22.213  -3.008  1.00  0.00    -0.120 S 
ATOM     24  C   UNL     1      22.140 -22.410  -2.769  1.00  0.00    +0.033 A 
ATOM     25  C   UNL     1      21.154 -21.938  -3.595  1.00  0.00    +0.094 A 
ATOM     26 Cl   UNL     1      21.374 -21.134  -5.096  1.00  0.00    -0.072 Cl
ENDBRANCH   1  21
TORSDOF 4
ENDMDL
MODEL 6
REMARK VINA RESULT:    -7.913      2.579      3.120
REMARK INTER + INTRA:         -10.246
REMARK INTER:                  -9.932
REMARK INTRA:                  -0.314
REMARK UNBOUND:                -0.483
REMARK SMILES CC1(c2ccc(C#N)cc2)NC(=O)N(CC(=O)c2ccc(Cl)s2)C1=O
REMARK SMILES IDX 16 1 17 2 15 3 14 4 2 5 11 6 24 7 12 8 25 9 13 10 1 11 3 13
REMARK SMILES IDX 4 14 10 15 5 16 9 17 6 18 7 19 8 20 18 21 19 22 23 23 20 24
REMARK SMILES IDX 21 25 22 26
REMARK H PARENT 11 12
ROOT
ATOM      1  C   UNL     1      15.444 -18.939   2.439  1.00  0.00    +0.192 C 
ATOM      2  O   UNL     1      14.642 -18.219   1.839  1.00  0.00    -0.291 OA
ENDROOT
BRANCH   1   3
ATOM      3  C   UNL     1      16.831 -19.230   1.852  1.00  0.00    +0.212 C 
BRANCH   3   4
ATOM      4  N   UNL     1      16.708 -19.968   0.615  1.00  0.00    -0.254 N 
ATOM      5  C   UNL     1      16.887 -21.662  -1.030  1.00  0.00    +0.144 C 
ATOM      6  N   UNL     1      16.508 -20.367  -1.560  1.00  0.00    -0.319 N 
ATOM      7  C   UNL     1      17.027 -21.290   0.467  1.00  0.00    +0.261 C 
ATOM      8  C   UNL     1      16.450 -19.396  -0.590  1.00  0.00    +0.325 C 
ATOM      9  O   UNL     1      17.346 -22.048   1.374  1.00  0.00    -0.271 OA
ATOM     10  O   UNL     1      16.215 -18.220  -0.806  1.00  0.00    -0.248 OA
ATOM     11  C   UNL     1      15.700 -22.623  -1.159  1.00  0.00    +0.051 C 
ATOM     12  H   UNL     1      16.462 -20.128  -2.541  1.00  0.00    +0.166 HD
BRANCH   5  13
ATOM     13  C   UNL     1      18.206 -22.128  -1.643  1.00  0.00    -0.013 A 
ATOM     14  C   UNL     1      19.005 -23.120  -1.048  1.00  0.00    +0.008 A 
ATOM     15  C   UNL     1      18.660 -21.570  -2.855  1.00  0.00    +0.008 A 
ATOM     16  C   UNL     1      20.209 -23.531  -1.634  1.00  0.00    +0.020 A 
ATOM     17  C   UNL     1      19.862 -21.979  -3.442  1.00  0.00    +0.020 A 
ATOM     18  C   UNL     1      20.641 -22.961  -2.833  1.00  0.00    +0.052 A 
ATOM     19  C   UNL     1      21.873 -23.384  -3.430  1.00  0.00    +0.099 C 
ATOM     20  N   UNL     1      22.870 -23.735  -3.911  1.00  0.00    -0.192 NA
ENDBRANCH   5  13
ENDBRANCH   3   4
ENDBRANCH   1   3
BRANCH   1  21
ATOM     21  C   UNL     1      15.156 -19.559   3.732  1.00  0.00    +0.074 A 
ATOM     22  C   UNL     1      14.190 -19.248   4.675  1.00  0.00    +0.025 A 
ATOM     23  S   UNL     1      16.114 -20.892   4.252  1.00  0.00    -0.120 S 
ATOM     24  C   UNL     1      14.243 -20.106   5.817  1.00  0.00    +0.033 A 
ATOM     25  C   UNL     1      15.246 -21.031   5.693  1.00  0.00    +0.094 A 
ATOM     26 Cl   UNL     1      15.661 -22.250   6.829  1.00  0.00    -0.072 Cl
ENDBRANCH   1  21
TORSDOF 4
ENDMDL
MODEL 7
REMARK VINA RESULT:    -7.831      2.490      2.995
REMARK INTER + INTRA:         -10.145
REMARK INTER:                  -9.491
REMARK INTRA:                  -0.654
REMARK UNBOUND:                -0.483
REMARK SMILES CC1(c2ccc(C#N)cc2)NC(=O)N(CC(=O)c2ccc(Cl)s2)C1=O
REMARK SMILES IDX 16 1 17 2 15 3 14 4 2 5 11 6 24 7 12 8 25 9 13 10 1 11 3 13
REMARK SMILES IDX 4 14 10 15 5 16 9 17 6 18 7 19 8 20 18 21 19 22 23 23 20 24
REMARK SMILES IDX 21 25 22 26
REMARK H PARENT 11 12
ROOT
ATOM      1  C   UNL     1      16.081 -19.954   3.032  1.00  0.00    +0.192 C 
ATOM      2  O   UNL     1      16.066 -21.032   3.632  1.00  0.00    -0.291 OA
ENDROOT
BRANCH   1   3
ATOM      3  C   UNL     1      17.154 -19.657   1.977  1.00  0.00    +0.212 C 
BRANCH   3   4
ATOM      4  N   UNL     1      16.975 -20.513   0.826  1.00  0.00    -0.254 N 
ATOM      5  C   UNL     1      17.247 -22.256  -0.755  1.00  0.00    +0.144 C 
ATOM      6  N   UNL     1      16.445 -21.148  -1.235  1.00  0.00    -0.319 N 
ATOM      7  C   UNL     1      17.589 -21.725   0.660  1.00  0.00    +0.261 C 
ATOM      8  C   UNL     1      16.337 -20.136  -0.313  1.00  0.00    +0.325 C 
ATOM      9  O   UNL     1      18.272 -22.295   1.501  1.00  0.00    -0.271 OA
ATOM     10  O   UNL     1      15.766 -19.078  -0.515  1.00  0.00    -0.248 OA
ATOM     11  C   UNL     1      16.349 -23.486  -0.582  1.00  0.00    +0.051 C 
ATOM     12  H   UNL     1      16.139 -21.019  -2.190  1.00  0.00    +0.166 HD
BRANCH   5  13
ATOM     13  C   UNL     1      18.488 -22.440  -1.627  1.00  0.00    -0.013 A 
ATOM     14  C   UNL     1      19.514 -23.342  -1.297  1.00  0.00    +0.008 A 
ATOM     15  C   UNL     1      18.632 -21.699  -2.818  1.00  0.00    +0.008 A 
ATOM     16  C   UNL     1      20.638 -23.493  -2.118  1.00  0.00    +0.020 A 
ATOM     17  C   UNL     1      19.755 -21.847  -3.638  1.00  0.00    +0.020 A 
ATOM     18  C   UNL     1      20.763 -22.745  -3.290  1.00  0.00    +0.052 A 
ATOM     19  C   UNL     1      21.915 -22.902  -4.128  1.00  0.00    +0.099 C 
ATOM     20  N   UNL     1      22.850 -23.037  -4.804  1.00  0.00    -0.192 NA
ENDBRANCH   5  13
ENDBRANCH   3   4
ENDBRANCH   1   3
BRANCH   1  21
ATOM     21  C   UNL     1      15.102 -18.893   3.261  1.00  0.00    +0.074 A 
ATOM     22  C   UNL     1      14.610 -17.931   2.392  1.00  0.00    +0.025 A 
ATOM     23  S   UNL     1      14.390 -18.732   4.821  1.00  0.00    -0.120 S 
ATOM     24  C   UNL     1      13.653 -17.069   3.014  1.00  0.00    +0.033 A 
ATOM     25  C   UNL     1      13.460 -17.413   4.326  1.00  0.00    +0.094 A 
ATOM     26 Cl   UNL     1      12.402 -16.647   5.440  1.00  0.00    -0.072 Cl
ENDBRANCH   1  21
TORSDOF 4
ENDMDL
MODEL 8
REMARK VINA RESULT:    -7.650      2.655      4.355
REMARK INTER + INTRA:          -9.922
REMARK INTER:                  -9.353
REMARK INTRA:                  -0.568
REMARK UNBOUND:                -0.483
REMARK SMILES CC1(c2ccc(C#N)cc2)NC(=O)N(CC(=O)c2ccc(Cl)s2)C1=O
REMARK SMILES IDX 16 1 17 2 15 3 14 4 2 5 11 6 24 7 12 8 25 9 13 10 1 11 3 13
REMARK SMILES IDX 4 14 10 15 5 16 9 17 6 18 7 19 8 20 18 21 19 22 23 23 20 24
REMARK SMILES IDX 21 25 22 26
REMARK H PARENT 11 12
ROOT
ATOM      1  C   UNL     1      16.564 -21.952   4.003  1.00  0.00    +0.192 C 
ATOM      2  O   UNL     1      17.380 -22.377   4.824  1.00  0.00    -0.291 OA
ENDROOT
BRANCH   1   3
ATOM      3  C   UNL     1      16.385 -22.642   2.644  1.00  0.00    +0.212 C 
BRANCH   3   4
ATOM      4  N   UNL     1      17.672 -22.915   2.047  1.00  0.00    -0.254 N 
ATOM      5  C   UNL     1      19.709 -22.671   0.863  1.00  0.00    +0.144 C 
ATOM      6  N   UNL     1      19.328 -24.050   1.098  1.00  0.00    -0.319 N 
ATOM      7  C   UNL     1      18.503 -21.961   1.527  1.00  0.00    +0.261 C 
ATOM      8  C   UNL     1      18.125 -24.162   1.752  1.00  0.00    +0.325 C 
ATOM      9  O   UNL     1      18.326 -20.751   1.599  1.00  0.00    -0.271 OA
ATOM     10  O   UNL     1      17.573 -25.219   2.002  1.00  0.00    -0.248 OA
ATOM     11  C   UNL     1      20.953 -22.345   1.698  1.00  0.00    +0.051 C 
ATOM     12  H   UNL     1      19.776 -24.857   0.688  1.00  0.00    +0.166 HD
BRANCH   5  13
ATOM     13  C   UNL     1      19.804 -22.387  -0.634  1.00  0.00    -0.013 A 
ATOM     14  C   UNL     1      18.742 -21.827  -1.364  1.00  0.00    +0.008 A 
ATOM     15  C   UNL     1      20.993 -22.678  -1.335  1.00  0.00    +0.008 A 
ATOM     16  C   UNL     1      18.859 -21.575  -2.737  1.00  0.00    +0.020 A 
ATOM     17  C   UNL     1      21.111 -22.427  -2.706  1.00  0.00    +0.020 A 
ATOM     18  C   UNL     1      20.043 -21.874  -3.412  1.00  0.00    +0.052 A 
ATOM     19  C   UNL     1      20.159 -21.614  -4.817  1.00  0.00    +0.099 C 
ATOM     20  N   UNL     1      20.248 -21.397  -5.954  1.00  0.00    -0.192 NA
ENDBRANCH   5  13
ENDBRANCH   3   4
ENDBRANCH   1   3
BRANCH   1  21
ATOM     21  C   UNL     1      15.711 -20.790   4.244  1.00  0.00    +0.074 A 
ATOM     22  C   UNL     1      15.607 -19.599   3.543  1.00  0.00    +0.025 A 
ATOM     23  S   UNL     1      14.631 -20.808   5.586  1.00  0.00    -0.120 S 
ATOM     24  C   UNL     1      14.642 -18.711   4.112  1.00  0.00    +0.033 A 
ATOM     25  C   UNL     1      14.055 -19.264   5.220  1.00  0.00    +0.094 A 
ATOM     26 Cl   UNL     1      12.848 -18.545   6.206  1.00  0.00    -0.072 Cl
ENDBRANCH   1  21
TORSDOF 4
ENDMDL
MODEL 9
REMARK VINA RESULT:    -7.545      4.395      7.983
REMARK INTER + INTRA:          -9.792
REMARK INTER:                  -8.866
REMARK INTRA:                  -0.926
REMARK UNBOUND:                -0.483
REMARK SMILES CC1(c2ccc(C#N)cc2)NC(=O)N(CC(=O)c2ccc(Cl)s2)C1=O
REMARK SMILES IDX 16 1 17 2 15 3 14 4 2 5 11 6 24 7 12 8 25 9 13 10 1 11 3 13
REMARK SMILES IDX 4 14 10 15 5 16 9 17 6 18 7 19 8 20 18 21 19 22 23 23 20 24
REMARK SMILES IDX 21 25 22 26
REMARK H PARENT 11 12
ROOT
ATOM      1  C   UNL     1      19.585 -25.324   2.290  1.00  0.00    +0.192 C 
ATOM      2  O   UNL     1      19.554 -26.280   1.512  1.00  0.00    -0.291 OA
ENDROOT
BRANCH   1   3
ATOM      3  C   UNL     1      18.341 -24.923   3.093  1.00  0.00    +0.212 C 
BRANCH   3   4
ATOM      4  N   UNL     1      17.801 -23.679   2.594  1.00  0.00    -0.254 N 
ATOM      5  C   UNL     1      17.145 -21.410   2.426  1.00  0.00    +0.144 C 
ATOM      6  N   UNL     1      16.508 -22.278   1.456  1.00  0.00    -0.319 N 
ATOM      7  C   UNL     1      17.998 -22.459   3.181  1.00  0.00    +0.261 C 
ATOM      8  C   UNL     1      16.878 -23.593   1.602  1.00  0.00    +0.325 C 
ATOM      9  O   UNL     1      18.741 -22.240   4.130  1.00  0.00    -0.271 OA
ATOM     10  O   UNL     1      16.425 -24.513   0.943  1.00  0.00    -0.248 OA
ATOM     11  C   UNL     1      18.111 -20.468   1.697  1.00  0.00    +0.051 C 
ATOM     12  H   UNL     1      15.744 -22.015   0.849  1.00  0.00    +0.166 HD
BRANCH   5  13
ATOM     13  C   UNL     1      16.101 -20.748   3.322  1.00  0.00    -0.013 A 
ATOM     14  C   UNL     1      15.442 -21.443   4.351  1.00  0.00    +0.008 A 
ATOM     15  C   UNL     1      15.772 -19.389   3.143  1.00  0.00    +0.008 A 
ATOM     16  C   UNL     1      14.490 -20.809   5.161  1.00  0.00    +0.020 A 
ATOM     17  C   UNL     1      14.822 -18.754   3.950  1.00  0.00    +0.020 A 
ATOM     18  C   UNL     1      14.177 -19.463   4.962  1.00  0.00    +0.052 A 
ATOM     19  C   UNL     1      13.204 -18.818   5.792  1.00  0.00    +0.099 C 
ATOM     20  N   UNL     1      12.416 -18.301   6.471  1.00  0.00    -0.192 NA
ENDBRANCH   5  13
ENDBRANCH   3   4
ENDBRANCH   1   3
BRANCH   1  21
ATOM     21  C   UNL     1      20.779 -24.511   2.518  1.00  0.00    +0.074 A 
ATOM     22  C   UNL     1      21.418 -23.610   1.680  1.00  0.00    +0.025 A 
ATOM     23  S   UNL     1      21.590 -24.622   4.033  1.00  0.00    -0.120 S 
ATOM     24  C   UNL     1      22.567 -23.016   2.290  1.00  0.00    +0.033 A 
ATOM     25  C   UNL     1      22.752 -23.492   3.561  1.00  0.00    +0.094 A 
ATOM     26 Cl   UNL     1      24.007 -23.050   4.646  1.00  0.00    -0.072 Cl
ENDBRANCH   1  21
TORSDOF 4
ENDMDL
