MODEL 1
REMARK VINA RESULT:    -8.578      0.000      0.000
REMARK INTER + INTRA:         -14.475
REMARK INTER:                 -12.339
REMARK INTRA:                  -2.135
REMARK UNBOUND:                -2.135
REMARK SMILES CC1(c2ccc(S(N)(=O)=O)cc2)NC(=O)N(CC(=O)c2cccc(OC(F)(F)F)c2)C1=O
REMARK SMILES IDX 17 1 16 2 2 3 13 4 31 5 14 6 32 7 15 8 1 9 3 11 4 12 12 13
REMARK SMILES IDX 5 14 11 15 6 16 7 17 9 18 10 19 8 20 18 23 19 24 20 25 21 26
REMARK SMILES IDX 30 27 22 28 24 29 23 30 25 31 26 32 27 33 28 34 29 35
REMARK H PARENT 13 10 8 21 8 22
ROOT
ATOM      1  C   UNL     1      16.785 -22.909  -1.377  1.00  0.00    +0.211 C 
ENDROOT
BRANCH   1   2
ATOM      2  N   UNL     1      17.077 -21.621  -0.789  1.00  0.00    -0.254 N 
ATOM      3  C   UNL     1      16.844 -19.443   0.111  1.00  0.00    +0.144 C 
ATOM      4  N   UNL     1      18.136 -20.046   0.365  1.00  0.00    -0.319 N 
ATOM      5  C   UNL     1      16.174 -20.600  -0.669  1.00  0.00    +0.261 C 
ATOM      6  C   UNL     1      18.234 -21.319  -0.143  1.00  0.00    +0.325 C 
ATOM      7  O   UNL     1      15.037 -20.598  -1.126  1.00  0.00    -0.271 OA
ATOM      8  O   UNL     1      19.214 -22.034  -0.012  1.00  0.00    -0.248 OA
ATOM      9  C   UNL     1      17.014 -18.273  -0.865  1.00  0.00    +0.051 C 
ATOM     10  H   UNL     1      18.855 -19.667   0.966  1.00  0.00    +0.166 HD
BRANCH   3  11
ATOM     11  C   UNL     1      16.144 -19.123   1.431  1.00  0.00    -0.013 A 
ATOM     12  C   UNL     1      16.421 -19.828   2.617  1.00  0.00    +0.008 A 
ATOM     13  C   UNL     1      15.164 -18.108   1.487  1.00  0.00    +0.008 A 
ATOM     14  C   UNL     1      15.758 -19.526   3.811  1.00  0.00    +0.022 A 
ATOM     15  C   UNL     1      14.502 -17.797   2.677  1.00  0.00    +0.022 A 
ATOM     16  C   UNL     1      14.796 -18.517   3.833  1.00  0.00    +0.082 A 
BRANCH  16  17
ATOM     17  S   UNL     1      13.965 -18.129   5.349  1.00  0.00    +0.238 S 
ATOM     18  O   UNL     1      13.259 -16.882   5.181  1.00  0.00    -0.207 OA
ATOM     19  O   UNL     1      13.325 -19.326   5.845  1.00  0.00    -0.207 OA
BRANCH  17  20
ATOM     20  N   UNL     1      15.267 -17.849   6.381  1.00  0.00    -0.225 NA
ATOM     21  H   UNL     1      14.906 -17.640   7.314  1.00  0.00    +0.137 HD
ATOM     22  H   UNL     1      15.938 -18.614   6.396  1.00  0.00    +0.137 HD
ENDBRANCH  17  20
ENDBRANCH  16  17
ENDBRANCH   3  11
ENDBRANCH   1   2
BRANCH   1  23
ATOM     23  C   UNL     1      16.083 -23.794  -0.350  1.00  0.00    +0.182 C 
ATOM     24  O   UNL     1      14.896 -24.111  -0.445  1.00  0.00    -0.292 OA
BRANCH  23  25
ATOM     25  C   UNL     1      16.876 -24.295   0.814  1.00  0.00    +0.023 A 
ATOM     26  C   UNL     1      17.671 -25.433   0.638  1.00  0.00    +0.012 A 
ATOM     27  C   UNL     1      16.851 -23.670   2.067  1.00  0.00    +0.058 A 
ATOM     28  C   UNL     1      18.428 -25.935   1.696  1.00  0.00    +0.005 A 
ATOM     29  C   UNL     1      17.609 -24.171   3.135  1.00  0.00    +0.130 A 
ATOM     30  C   UNL     1      18.397 -25.306   2.943  1.00  0.00    +0.047 A 
BRANCH  29  31
ATOM     31  O   UNL     1      17.484 -23.459   4.294  1.00  0.00    -0.406 OA
BRANCH  31  32
ATOM     32  C   UNL     1      18.468 -22.477   4.581  1.00  0.00    +0.573 C 
ATOM     33  F   UNL     1      19.518 -23.080   5.178  1.00  0.00    -0.132 F 
ATOM     34  F   UNL     1      18.909 -21.888   3.450  1.00  0.00    -0.132 F 
ATOM     35  F   UNL     1      17.986 -21.539   5.424  1.00  0.00    -0.132 F 
ENDBRANCH  31  32
ENDBRANCH  29  31
ENDBRANCH  23  25
ENDBRANCH   1  23
TORSDOF 8
ENDMDL
MODEL 2
REMARK VINA RESULT:    -8.572      1.738      2.062
REMARK INTER + INTRA:         -14.465
REMARK INTER:                 -12.630
REMARK INTRA:                  -1.835
REMARK UNBOUND:                -2.135
REMARK SMILES CC1(c2ccc(S(N)(=O)=O)cc2)NC(=O)N(CC(=O)c2cccc(OC(F)(F)F)c2)C1=O
REMARK SMILES IDX 17 1 16 2 2 3 13 4 31 5 14 6 32 7 15 8 1 9 3 11 4 12 12 13
REMARK SMILES IDX 5 14 11 15 6 16 7 17 9 18 10 19 8 20 18 23 19 24 20 25 21 26
REMARK SMILES IDX 30 27 22 28 24 29 23 30 25 31 26 32 27 33 28 34 29 35
REMARK H PARENT 13 10 8 21 8 22
ROOT
ATOM      1  C   UNL     1      17.334 -22.920  -0.435  1.00  0.00    +0.211 C 
ENDROOT
BRANCH   1   2
ATOM      2  N   UNL     1      17.434 -21.513  -0.120  1.00  0.00    -0.254 N 
ATOM      3  C   UNL     1      16.905 -19.228   0.210  1.00  0.00    +0.144 C 
ATOM      4  N   UNL     1      18.173 -19.625   0.787  1.00  0.00    -0.319 N 
ATOM      5  C   UNL     1      16.456 -20.590  -0.376  1.00  0.00    +0.261 C 
ATOM      6  C   UNL     1      18.441 -20.961   0.605  1.00  0.00    +0.325 C 
ATOM      7  O   UNL     1      15.417 -20.805  -0.986  1.00  0.00    -0.271 OA
ATOM      8  O   UNL     1      19.431 -21.524   1.042  1.00  0.00    -0.248 OA
ATOM      9  C   UNL     1      17.158 -18.285  -0.972  1.00  0.00    +0.051 C 
ATOM     10  H   UNL     1      18.752 -19.052   1.386  1.00  0.00    +0.166 HD
BRANCH   3  11
ATOM     11  C   UNL     1      15.971 -18.706   1.301  1.00  0.00    -0.013 A 
ATOM     12  C   UNL     1      15.795 -19.380   2.523  1.00  0.00    +0.008 A 
ATOM     13  C   UNL     1      15.228 -17.524   1.093  1.00  0.00    +0.008 A 
ATOM     14  C   UNL     1      14.924 -18.891   3.503  1.00  0.00    +0.022 A 
ATOM     15  C   UNL     1      14.361 -17.025   2.068  1.00  0.00    +0.022 A 
ATOM     16  C   UNL     1      14.206 -17.719   3.267  1.00  0.00    +0.082 A 
BRANCH  16  17
ATOM     17  S   UNL     1      13.111 -17.094   4.512  1.00  0.00    +0.238 S 
ATOM     18  O   UNL     1      13.871 -16.273   5.424  1.00  0.00    -0.207 OA
ATOM     19  O   UNL     1      11.900 -16.633   3.874  1.00  0.00    -0.207 OA
BRANCH  17  20
ATOM     20  N   UNL     1      12.688 -18.509   5.324  1.00  0.00    -0.225 NA
ATOM     21  H   UNL     1      12.213 -19.132   4.668  1.00  0.00    +0.137 HD
ATOM     22  H   UNL     1      13.480 -18.964   5.775  1.00  0.00    +0.137 HD
ENDBRANCH  17  20
ENDBRANCH  16  17
ENDBRANCH   3  11
ENDBRANCH   1   2
BRANCH   1  23
ATOM     23  C   UNL     1      16.502 -23.626   0.633  1.00  0.00    +0.182 C 
ATOM     24  O   UNL     1      15.453 -24.219   0.377  1.00  0.00    -0.292 OA
BRANCH  23  25
ATOM     25  C   UNL     1      16.988 -23.594   2.047  1.00  0.00    +0.023 A 
ATOM     26  C   UNL     1      17.870 -24.595   2.471  1.00  0.00    +0.012 A 
ATOM     27  C   UNL     1      16.595 -22.604   2.957  1.00  0.00    +0.058 A 
ATOM     28  C   UNL     1      18.349 -24.604   3.780  1.00  0.00    +0.005 A 
ATOM     29  C   UNL     1      17.074 -22.609   4.275  1.00  0.00    +0.130 A 
ATOM     30  C   UNL     1      17.953 -23.614   4.681  1.00  0.00    +0.047 A 
BRANCH  29  31
ATOM     31  O   UNL     1      16.603 -21.583   5.045  1.00  0.00    -0.406 OA
BRANCH  31  32
ATOM     32  C   UNL     1      15.401 -21.793   5.769  1.00  0.00    +0.573 C 
ATOM     33  F   UNL     1      15.006 -20.616   6.301  1.00  0.00    -0.132 F 
ATOM     34  F   UNL     1      14.418 -22.239   4.958  1.00  0.00    -0.132 F 
ATOM     35  F   UNL     1      15.589 -22.670   6.778  1.00  0.00    -0.132 F 
ENDBRANCH  31  32
ENDBRANCH  29  31
ENDBRANCH  23  25
ENDBRANCH   1  23
TORSDOF 8
ENDMDL
MODEL 3
REMARK VINA RESULT:    -8.468      3.782      7.340
REMARK INTER + INTRA:         -14.316
REMARK INTER:                 -13.041
REMARK INTRA:                  -1.275
REMARK UNBOUND:                -2.135
REMARK SMILES CC1(c2ccc(S(N)(=O)=O)cc2)NC(=O)N(CC(=O)c2cccc(OC(F)(F)F)c2)C1=O
REMARK SMILES IDX 17 1 16 2 2 3 13 4 31 5 14 6 32 7 15 8 1 9 3 11 4 12 12 13
REMARK SMILES IDX 5 14 11 15 6 16 7 17 9 18 10 19 8 20 18 23 19 24 20 25 21 26
REMARK SMILES IDX 30 27 22 28 24 29 23 30 25 31 26 32 27 33 28 34 29 35
REMARK H PARENT 13 10 8 21 8 22
ROOT
ATOM      1  C   UNL     1      17.130 -19.657   2.082  1.00  0.00    +0.211 C 
ENDROOT
BRANCH   1   2
ATOM      2  N   UNL     1      17.048 -20.627   1.014  1.00  0.00    -0.254 N 
ATOM      3  C   UNL     1      17.227 -21.681  -1.100  1.00  0.00    +0.144 C 
ATOM      4  N   UNL     1      16.906 -22.589  -0.018  1.00  0.00    -0.319 N 
ATOM      5  C   UNL     1      17.326 -20.359  -0.300  1.00  0.00    +0.261 C 
ATOM      6  C   UNL     1      16.836 -21.956   1.200  1.00  0.00    +0.325 C 
ATOM      7  O   UNL     1      17.583 -19.255  -0.762  1.00  0.00    -0.271 OA
ATOM      8  O   UNL     1      16.621 -22.528   2.256  1.00  0.00    -0.248 OA
ATOM      9  C   UNL     1      16.018 -21.559  -2.035  1.00  0.00    +0.051 C 
ATOM     10  H   UNL     1      16.874 -23.597  -0.085  1.00  0.00    +0.166 HD
BRANCH   3  11
ATOM     11  C   UNL     1      18.547 -22.088  -1.754  1.00  0.00    -0.013 A 
ATOM     12  C   UNL     1      19.511 -22.861  -1.080  1.00  0.00    +0.008 A 
ATOM     13  C   UNL     1      18.848 -21.668  -3.068  1.00  0.00    +0.008 A 
ATOM     14  C   UNL     1      20.718 -23.210  -1.694  1.00  0.00    +0.022 A 
ATOM     15  C   UNL     1      20.049 -22.017  -3.689  1.00  0.00    +0.022 A 
ATOM     16  C   UNL     1      20.984 -22.780  -2.993  1.00  0.00    +0.082 A 
BRANCH  16  17
ATOM     17  S   UNL     1      22.509 -23.232  -3.774  1.00  0.00    +0.238 S 
ATOM     18  O   UNL     1      22.864 -22.204  -4.722  1.00  0.00    -0.207 OA
ATOM     19  O   UNL     1      23.424 -23.706  -2.761  1.00  0.00    -0.207 OA
BRANCH  17  20
ATOM     20  N   UNL     1      22.045 -24.599  -4.644  1.00  0.00    -0.225 NA
ATOM     21  H   UNL     1      22.638 -24.674  -5.473  1.00  0.00    +0.137 HD
ATOM     22  H   UNL     1      22.060 -25.452  -4.088  1.00  0.00    +0.137 HD
ENDBRANCH  17  20
ENDBRANCH  16  17
ENDBRANCH   3  11
ENDBRANCH   1   2
BRANCH   1  23
ATOM     23  C   UNL     1      15.804 -18.911   2.200  1.00  0.00    +0.182 C 
ATOM     24  O   UNL     1      15.373 -18.175   1.311  1.00  0.00    -0.292 OA
BRANCH  23  25
ATOM     25  C   UNL     1      14.999 -19.087   3.447  1.00  0.00    +0.023 A 
ATOM     26  C   UNL     1      14.214 -18.015   3.890  1.00  0.00    +0.012 A 
ATOM     27  C   UNL     1      15.002 -20.277   4.185  1.00  0.00    +0.058 A 
ATOM     28  C   UNL     1      13.447 -18.134   5.048  1.00  0.00    +0.005 A 
ATOM     29  C   UNL     1      14.232 -20.402   5.351  1.00  0.00    +0.130 A 
ATOM     30  C   UNL     1      13.455 -19.325   5.777  1.00  0.00    +0.047 A 
BRANCH  29  31
ATOM     31  O   UNL     1      14.337 -21.619   5.962  1.00  0.00    -0.406 OA
BRANCH  31  32
ATOM     32  C   UNL     1      15.578 -21.958   6.561  1.00  0.00    +0.573 C 
ATOM     33  F   UNL     1      15.346 -22.805   7.587  1.00  0.00    -0.132 F 
ATOM     34  F   UNL     1      16.389 -22.578   5.678  1.00  0.00    -0.132 F 
ATOM     35  F   UNL     1      16.195 -20.862   7.051  1.00  0.00    -0.132 F 
ENDBRANCH  31  32
ENDBRANCH  29  31
ENDBRANCH  23  25
ENDBRANCH   1  23
TORSDOF 8
ENDMDL
MODEL 4
REMARK VINA RESULT:    -8.452      4.122      7.672
REMARK INTER + INTRA:         -14.293
REMARK INTER:                 -13.086
REMARK INTRA:                  -1.207
REMARK UNBOUND:                -2.135
REMARK SMILES CC1(c2ccc(S(N)(=O)=O)cc2)NC(=O)N(CC(=O)c2cccc(OC(F)(F)F)c2)C1=O
REMARK SMILES IDX 17 1 16 2 2 3 13 4 31 5 14 6 32 7 15 8 1 9 3 11 4 12 12 13
REMARK SMILES IDX 5 14 11 15 6 16 7 17 9 18 10 19 8 20 18 23 19 24 20 25 21 26
REMARK SMILES IDX 30 27 22 28 24 29 23 30 25 31 26 32 27 33 28 34 29 35
REMARK H PARENT 13 10 8 21 8 22
ROOT
ATOM      1  C   UNL     1      17.507 -21.699   3.611  1.00  0.00    +0.211 C 
ENDROOT
BRANCH   1   2
ATOM      2  N   UNL     1      17.442 -22.521   2.424  1.00  0.00    -0.254 N 
ATOM      3  C   UNL     1      17.201 -23.230   0.177  1.00  0.00    +0.144 C 
ATOM      4  N   UNL     1      17.787 -24.229   1.047  1.00  0.00    -0.319 N 
ATOM      5  C   UNL     1      17.013 -22.083   1.201  1.00  0.00    +0.261 C 
ATOM      6  C   UNL     1      17.941 -23.781   2.337  1.00  0.00    +0.325 C 
ATOM      7  O   UNL     1      16.539 -20.978   0.966  1.00  0.00    -0.271 OA
ATOM      8  O   UNL     1      18.452 -24.436   3.231  1.00  0.00    -0.248 OA
ATOM      9  C   UNL     1      15.803 -23.690  -0.253  1.00  0.00    +0.051 C 
ATOM     10  H   UNL     1      18.184 -25.109   0.749  1.00  0.00    +0.166 HD
BRANCH   3  11
ATOM     11  C   UNL     1      18.171 -22.878  -0.949  1.00  0.00    -0.013 A 
ATOM     12  C   UNL     1      19.508 -23.319  -0.953  1.00  0.00    +0.008 A 
ATOM     13  C   UNL     1      17.749 -22.063  -2.022  1.00  0.00    +0.008 A 
ATOM     14  C   UNL     1      20.383 -22.973  -1.988  1.00  0.00    +0.022 A 
ATOM     15  C   UNL     1      18.615 -21.719  -3.062  1.00  0.00    +0.022 A 
ATOM     16  C   UNL     1      19.934 -22.169  -3.034  1.00  0.00    +0.082 A 
BRANCH  16  17
ATOM     17  S   UNL     1      21.040 -21.740  -4.350  1.00  0.00    +0.238 S 
ATOM     18  O   UNL     1      21.917 -20.690  -3.891  1.00  0.00    -0.207 OA
ATOM     19  O   UNL     1      21.531 -22.956  -4.956  1.00  0.00    -0.207 OA
BRANCH  17  20
ATOM     20  N   UNL     1      19.977 -21.069  -5.473  1.00  0.00    -0.225 NA
ATOM     21  H   UNL     1      20.469 -20.955  -6.361  1.00  0.00    +0.137 HD
ATOM     22  H   UNL     1      19.118 -21.605  -5.581  1.00  0.00    +0.137 HD
ENDBRANCH  17  20
ENDBRANCH  16  17
ENDBRANCH   3  11
ENDBRANCH   1   2
BRANCH   1  23
ATOM     23  C   UNL     1      16.113 -21.566   4.220  1.00  0.00    +0.182 C 
ATOM     24  O   UNL     1      15.296 -22.488   4.219  1.00  0.00    -0.292 OA
BRANCH  23  25
ATOM     25  C   UNL     1      15.733 -20.262   4.844  1.00  0.00    +0.023 A 
ATOM     26  C   UNL     1      16.356 -19.890   6.042  1.00  0.00    +0.012 A 
ATOM     27  C   UNL     1      14.781 -19.405   4.279  1.00  0.00    +0.058 A 
ATOM     28  C   UNL     1      16.033 -18.683   6.659  1.00  0.00    +0.005 A 
ATOM     29  C   UNL     1      14.451 -18.189   4.896  1.00  0.00    +0.130 A 
ATOM     30  C   UNL     1      15.082 -17.833   6.088  1.00  0.00    +0.047 A 
BRANCH  29  31
ATOM     31  O   UNL     1      13.508 -17.461   4.229  1.00  0.00    -0.406 OA
BRANCH  31  32
ATOM     32  C   UNL     1      12.252 -17.263   4.860  1.00  0.00    +0.573 C 
ATOM     33  F   UNL     1      12.337 -16.179   5.660  1.00  0.00    -0.132 F 
ATOM     34  F   UNL     1      11.281 -17.039   3.949  1.00  0.00    -0.132 F 
ATOM     35  F   UNL     1      11.920 -18.326   5.624  1.00  0.00    -0.132 F 
ENDBRANCH  31  32
ENDBRANCH  29  31
ENDBRANCH  23  25
ENDBRANCH   1  23
TORSDOF 8
ENDMDL
MODEL 5
REMARK VINA RESULT:    -8.237      2.528      4.735
REMARK INTER + INTRA:         -13.984
REMARK INTER:                 -12.016
REMARK INTRA:                  -1.968
REMARK UNBOUND:                -2.135
REMARK SMILES CC1(c2ccc(S(N)(=O)=O)cc2)NC(=O)N(CC(=O)c2cccc(OC(F)(F)F)c2)C1=O
REMARK SMILES IDX 17 1 16 2 2 3 13 4 31 5 14 6 32 7 15 8 1 9 3 11 4 12 12 13
REMARK SMILES IDX 5 14 11 15 6 16 7 17 9 18 10 19 8 20 18 23 19 24 20 25 21 26
REMARK SMILES IDX 30 27 22 28 24 29 23 30 25 31 26 32 27 33 28 34 29 35
REMARK H PARENT 13 10 8 21 8 22
ROOT
ATOM      1  C   UNL     1      18.687 -24.362   0.507  1.00  0.00    +0.211 C 
ENDROOT
BRANCH   1   2
ATOM      2  N   UNL     1      18.565 -24.116   1.926  1.00  0.00    -0.254 N 
ATOM      3  C   UNL     1      18.548 -23.051   4.041  1.00  0.00    +0.144 C 
ATOM      4  N   UNL     1      17.920 -24.356   4.038  1.00  0.00    -0.319 N 
ATOM      5  C   UNL     1      18.945 -22.957   2.547  1.00  0.00    +0.261 C 
ATOM      6  C   UNL     1      17.919 -24.938   2.793  1.00  0.00    +0.325 C 
ATOM      7  O   UNL     1      19.523 -22.019   2.013  1.00  0.00    -0.271 OA
ATOM      8  O   UNL     1      17.408 -26.018   2.544  1.00  0.00    -0.248 OA
ATOM      9  C   UNL     1      19.845 -23.114   4.855  1.00  0.00    +0.051 C 
ATOM     10  H   UNL     1      17.402 -24.762   4.805  1.00  0.00    +0.166 HD
BRANCH   3  11
ATOM     11  C   UNL     1      17.539 -21.983   4.463  1.00  0.00    -0.013 A 
ATOM     12  C   UNL     1      16.625 -21.414   3.557  1.00  0.00    +0.008 A 
ATOM     13  C   UNL     1      17.517 -21.513   5.795  1.00  0.00    +0.008 A 
ATOM     14  C   UNL     1      15.719 -20.428   3.962  1.00  0.00    +0.022 A 
ATOM     15  C   UNL     1      16.612 -20.534   6.209  1.00  0.00    +0.022 A 
ATOM     16  C   UNL     1      15.723 -19.988   5.285  1.00  0.00    +0.082 A 
BRANCH  16  17
ATOM     17  S   UNL     1      14.568 -18.746   5.801  1.00  0.00    +0.238 S 
ATOM     18  O   UNL     1      13.300 -19.381   6.070  1.00  0.00    -0.207 OA
ATOM     19  O   UNL     1      15.220 -17.874   6.749  1.00  0.00    -0.207 OA
BRANCH  17  20
ATOM     20  N   UNL     1      14.401 -17.841   4.389  1.00  0.00    -0.225 NA
ATOM     21  H   UNL     1      13.480 -17.399   4.392  1.00  0.00    +0.137 HD
ATOM     22  H   UNL     1      15.148 -17.161   4.259  1.00  0.00    +0.137 HD
ENDBRANCH  17  20
ENDBRANCH  16  17
ENDBRANCH   3  11
ENDBRANCH   1   2
BRANCH   1  23
ATOM     23  C   UNL     1      17.443 -23.846  -0.211  1.00  0.00    +0.182 C 
ATOM     24  O   UNL     1      16.402 -24.500  -0.294  1.00  0.00    -0.292 OA
BRANCH  23  25
ATOM     25  C   UNL     1      17.496 -22.488  -0.835  1.00  0.00    +0.023 A 
ATOM     26  C   UNL     1      18.460 -22.246  -1.822  1.00  0.00    +0.012 A 
ATOM     27  C   UNL     1      16.623 -21.456  -0.471  1.00  0.00    +0.058 A 
ATOM     28  C   UNL     1      18.546 -20.995  -2.431  1.00  0.00    +0.005 A 
ATOM     29  C   UNL     1      16.706 -20.196  -1.080  1.00  0.00    +0.130 A 
ATOM     30  C   UNL     1      17.671 -19.972  -2.062  1.00  0.00    +0.047 A 
BRANCH  29  31
ATOM     31  O   UNL     1      15.790 -19.291  -0.622  1.00  0.00    -0.406 OA
BRANCH  31  32
ATOM     32  C   UNL     1      16.032 -18.679   0.635  1.00  0.00    +0.573 C 
ATOM     33  F   UNL     1      17.170 -19.191   1.153  1.00  0.00    -0.132 F 
ATOM     34  F   UNL     1      16.193 -17.346   0.502  1.00  0.00    -0.132 F 
ATOM     35  F   UNL     1      15.025 -18.931   1.499  1.00  0.00    -0.132 F 
ENDBRANCH  31  32
ENDBRANCH  29  31
ENDBRANCH  23  25
ENDBRANCH   1  23
TORSDOF 8
ENDMDL
MODEL 6
REMARK VINA RESULT:    -8.032      4.166      7.712
REMARK INTER + INTRA:         -13.690
REMARK INTER:                 -12.618
REMARK INTRA:                  -1.071
REMARK UNBOUND:                -2.135
REMARK SMILES CC1(c2ccc(S(N)(=O)=O)cc2)NC(=O)N(CC(=O)c2cccc(OC(F)(F)F)c2)C1=O
REMARK SMILES IDX 17 1 16 2 2 3 13 4 31 5 14 6 32 7 15 8 1 9 3 11 4 12 12 13
REMARK SMILES IDX 5 14 11 15 6 16 7 17 9 18 10 19 8 20 18 23 19 24 20 25 21 26
REMARK SMILES IDX 30 27 22 28 24 29 23 30 25 31 26 32 27 33 28 34 29 35
REMARK H PARENT 13 10 8 21 8 22
ROOT
ATOM      1  C   UNL     1      16.509 -22.775   2.866  1.00  0.00    +0.211 C 
ENDROOT
BRANCH   1   2
ATOM      2  N   UNL     1      17.655 -23.328   2.181  1.00  0.00    -0.254 N 
ATOM      3  C   UNL     1      19.047 -24.314   0.537  1.00  0.00    +0.144 C 
ATOM      4  N   UNL     1      19.773 -23.726   1.644  1.00  0.00    -0.319 N 
ATOM      5  C   UNL     1      17.601 -23.978   0.978  1.00  0.00    +0.261 C 
ATOM      6  C   UNL     1      18.944 -23.137   2.568  1.00  0.00    +0.325 C 
ATOM      7  O   UNL     1      16.577 -24.264   0.369  1.00  0.00    -0.271 OA
ATOM      8  O   UNL     1      19.336 -22.545   3.559  1.00  0.00    -0.248 OA
ATOM      9  C   UNL     1      19.195 -25.839   0.586  1.00  0.00    +0.051 C 
ATOM     10  H   UNL     1      20.776 -23.613   1.696  1.00  0.00    +0.166 HD
BRANCH   3  11
ATOM     11  C   UNL     1      19.448 -23.639  -0.773  1.00  0.00    -0.013 A 
ATOM     12  C   UNL     1      18.817 -22.470  -1.240  1.00  0.00    +0.008 A 
ATOM     13  C   UNL     1      20.466 -24.197  -1.577  1.00  0.00    +0.008 A 
ATOM     14  C   UNL     1      19.192 -21.877  -2.449  1.00  0.00    +0.022 A 
ATOM     15  C   UNL     1      20.850 -23.607  -2.783  1.00  0.00    +0.022 A 
ATOM     16  C   UNL     1      20.202 -22.453  -3.219  1.00  0.00    +0.082 A 
BRANCH  16  17
ATOM     17  S   UNL     1      20.685 -21.695  -4.746  1.00  0.00    +0.238 S 
ATOM     18  O   UNL     1      21.718 -20.725  -4.473  1.00  0.00    -0.207 OA
ATOM     19  O   UNL     1      20.829 -22.725  -5.748  1.00  0.00    -0.207 OA
BRANCH  17  20
ATOM     20  N   UNL     1      19.283 -20.853  -5.156  1.00  0.00    -0.225 NA
ATOM     21  H   UNL     1      19.503 -19.856  -5.203  1.00  0.00    +0.137 HD
ATOM     22  H   UNL     1      18.853 -21.187  -6.017  1.00  0.00    +0.137 HD
ENDBRANCH  17  20
ENDBRANCH  16  17
ENDBRANCH   3  11
ENDBRANCH   1   2
BRANCH   1  23
ATOM     23  C   UNL     1      16.479 -21.260   2.674  1.00  0.00    +0.182 C 
ATOM     24  O   UNL     1      16.850 -20.714   1.634  1.00  0.00    -0.292 OA
BRANCH  23  25
ATOM     25  C   UNL     1      15.976 -20.413   3.798  1.00  0.00    +0.023 A 
ATOM     26  C   UNL     1      16.445 -20.674   5.091  1.00  0.00    +0.012 A 
ATOM     27  C   UNL     1      15.057 -19.374   3.606  1.00  0.00    +0.058 A 
ATOM     28  C   UNL     1      16.004 -19.908   6.169  1.00  0.00    +0.005 A 
ATOM     29  C   UNL     1      14.609 -18.601   4.687  1.00  0.00    +0.130 A 
ATOM     30  C   UNL     1      15.088 -18.874   5.969  1.00  0.00    +0.047 A 
BRANCH  29  31
ATOM     31  O   UNL     1      13.715 -17.626   4.346  1.00  0.00    -0.406 OA
BRANCH  31  32
ATOM     32  C   UNL     1      12.465 -17.606   5.017  1.00  0.00    +0.573 C 
ATOM     33  F   UNL     1      12.600 -16.903   6.162  1.00  0.00    -0.132 F 
ATOM     34  F   UNL     1      11.520 -17.005   4.264  1.00  0.00    -0.132 F 
ATOM     35  F   UNL     1      12.065 -18.856   5.335  1.00  0.00    -0.132 F 
ENDBRANCH  31  32
ENDBRANCH  29  31
ENDBRANCH  23  25
ENDBRANCH   1  23
TORSDOF 8
ENDMDL
MODEL 7
REMARK VINA RESULT:    -7.997      4.241      5.987
REMARK INTER + INTRA:         -13.639
REMARK INTER:                 -12.553
REMARK INTRA:                  -1.085
REMARK UNBOUND:                -2.135
REMARK SMILES CC1(c2ccc(S(N)(=O)=O)cc2)NC(=O)N(CC(=O)c2cccc(OC(F)(F)F)c2)C1=O
REMARK SMILES IDX 17 1 16 2 2 3 13 4 31 5 14 6 32 7 15 8 1 9 3 11 4 12 12 13
REMARK SMILES IDX 5 14 11 15 6 16 7 17 9 18 10 19 8 20 18 23 19 24 20 25 21 26
REMARK SMILES IDX 30 27 22 28 24 29 23 30 25 31 26 32 27 33 28 34 29 35
REMARK H PARENT 13 10 8 21 8 22
ROOT
ATOM      1  C   UNL     1      18.605 -22.413  -0.656  1.00  0.00    +0.211 C 
ENDROOT
BRANCH   1   2
ATOM      2  N   UNL     1      17.923 -22.736   0.577  1.00  0.00    -0.254 N 
ATOM      3  C   UNL     1      17.192 -22.705   2.830  1.00  0.00    +0.144 C 
ATOM      4  N   UNL     1      16.382 -23.535   1.962  1.00  0.00    -0.319 N 
ATOM      5  C   UNL     1      18.215 -22.180   1.793  1.00  0.00    +0.261 C 
ATOM      6  C   UNL     1      16.811 -23.512   0.657  1.00  0.00    +0.325 C 
ATOM      7  O   UNL     1      19.145 -21.416   2.022  1.00  0.00    -0.271 OA
ATOM      8  O   UNL     1      16.256 -24.102  -0.255  1.00  0.00    -0.248 OA
ATOM      9  C   UNL     1      17.957 -23.596   3.814  1.00  0.00    +0.051 C 
ATOM     10  H   UNL     1      15.510 -23.977   2.218  1.00  0.00    +0.166 HD
BRANCH   3  11
ATOM     11  C   UNL     1      16.338 -21.598   3.446  1.00  0.00    -0.013 A 
ATOM     12  C   UNL     1      16.301 -20.295   2.914  1.00  0.00    +0.008 A 
ATOM     13  C   UNL     1      15.571 -21.853   4.604  1.00  0.00    +0.008 A 
ATOM     14  C   UNL     1      15.522 -19.293   3.503  1.00  0.00    +0.022 A 
ATOM     15  C   UNL     1      14.787 -20.860   5.194  1.00  0.00    +0.022 A 
ATOM     16  C   UNL     1      14.775 -19.580   4.645  1.00  0.00    +0.082 A 
BRANCH  16  17
ATOM     17  S   UNL     1      13.780 -18.312   5.385  1.00  0.00    +0.238 S 
ATOM     18  O   UNL     1      12.412 -18.770   5.432  1.00  0.00    -0.207 OA
ATOM     19  O   UNL     1      14.471 -17.801   6.546  1.00  0.00    -0.207 OA
BRANCH  17  20
ATOM     20  N   UNL     1      13.876 -17.094   4.224  1.00  0.00    -0.225 NA
ATOM     21  H   UNL     1      12.978 -17.031   3.742  1.00  0.00    +0.137 HD
ATOM     22  H   UNL     1      14.165 -16.196   4.609  1.00  0.00    +0.137 HD
ENDBRANCH  17  20
ENDBRANCH  16  17
ENDBRANCH   3  11
ENDBRANCH   1   2
BRANCH   1  23
ATOM     23  C   UNL     1      19.828 -23.312  -0.816  1.00  0.00    +0.182 C 
ATOM     24  O   UNL     1      19.907 -24.428  -0.298  1.00  0.00    -0.292 OA
BRANCH  23  25
ATOM     25  C   UNL     1      20.973 -22.813  -1.637  1.00  0.00    +0.023 A 
ATOM     26  C   UNL     1      22.266 -23.234  -1.303  1.00  0.00    +0.012 A 
ATOM     27  C   UNL     1      20.800 -21.945  -2.722  1.00  0.00    +0.058 A 
ATOM     28  C   UNL     1      23.363 -22.795  -2.042  1.00  0.00    +0.005 A 
ATOM     29  C   UNL     1      21.901 -21.499  -3.468  1.00  0.00    +0.130 A 
ATOM     30  C   UNL     1      23.182 -21.929  -3.122  1.00  0.00    +0.047 A 
BRANCH  29  31
ATOM     31  O   UNL     1      21.577 -20.657  -4.494  1.00  0.00    -0.406 OA
BRANCH  31  32
ATOM     32  C   UNL     1      21.239 -21.234  -5.746  1.00  0.00    +0.573 C 
ATOM     33  F   UNL     1      19.915 -21.068  -5.954  1.00  0.00    -0.132 F 
ATOM     34  F   UNL     1      21.902 -20.629  -6.754  1.00  0.00    -0.132 F 
ATOM     35  F   UNL     1      21.504 -22.558  -5.757  1.00  0.00    -0.132 F 
ENDBRANCH  31  32
ENDBRANCH  29  31
ENDBRANCH  23  25
ENDBRANCH   1  23
TORSDOF 8
ENDMDL
MODEL 8
REMARK VINA RESULT:    -7.956      3.649      7.242
REMARK INTER + INTRA:         -13.580
REMARK INTER:                 -12.461
REMARK INTRA:                  -1.119
REMARK UNBOUND:                -2.135
REMARK SMILES CC1(c2ccc(S(N)(=O)=O)cc2)NC(=O)N(CC(=O)c2cccc(OC(F)(F)F)c2)C1=O
REMARK SMILES IDX 17 1 16 2 2 3 13 4 31 5 14 6 32 7 15 8 1 9 3 11 4 12 12 13
REMARK SMILES IDX 5 14 11 15 6 16 7 17 9 18 10 19 8 20 18 23 19 24 20 25 21 26
REMARK SMILES IDX 30 27 22 28 24 29 23 30 25 31 26 32 27 33 28 34 29 35
REMARK H PARENT 13 10 8 21 8 22
ROOT
ATOM      1  C   UNL     1      15.933 -20.084   0.004  1.00  0.00    +0.211 C 
ENDROOT
BRANCH   1   2
ATOM      2  N   UNL     1      17.221 -20.737   0.057  1.00  0.00    -0.254 N 
ATOM      3  C   UNL     1      19.014 -22.151   0.688  1.00  0.00    +0.144 C 
ATOM      4  N   UNL     1      19.197 -21.511  -0.599  1.00  0.00    -0.319 N 
ATOM      5  C   UNL     1      17.623 -21.580   1.058  1.00  0.00    +0.261 C 
ATOM      6  C   UNL     1      18.131 -20.719  -0.952  1.00  0.00    +0.325 C 
ATOM      7  O   UNL     1      16.996 -21.818   2.083  1.00  0.00    -0.271 OA
ATOM      8  O   UNL     1      18.048 -20.117  -2.010  1.00  0.00    -0.248 OA
ATOM      9  C   UNL     1      20.024 -21.578   1.688  1.00  0.00    +0.051 C 
ATOM     10  H   UNL     1      19.940 -21.711  -1.255  1.00  0.00    +0.166 HD
BRANCH   3  11
ATOM     11  C   UNL     1      19.015 -23.670   0.524  1.00  0.00    -0.013 A 
ATOM     12  C   UNL     1      17.838 -24.436   0.615  1.00  0.00    +0.008 A 
ATOM     13  C   UNL     1      20.227 -24.360   0.298  1.00  0.00    +0.008 A 
ATOM     14  C   UNL     1      17.864 -25.828   0.475  1.00  0.00    +0.022 A 
ATOM     15  C   UNL     1      20.261 -25.748   0.151  1.00  0.00    +0.022 A 
ATOM     16  C   UNL     1      19.078 -26.477   0.251  1.00  0.00    +0.082 A 
BRANCH  16  17
ATOM     17  S   UNL     1      19.110 -28.239   0.063  1.00  0.00    +0.238 S 
ATOM     18  O   UNL     1      17.924 -28.789   0.674  1.00  0.00    -0.207 OA
ATOM     19  O   UNL     1      19.505 -28.552  -1.291  1.00  0.00    -0.207 OA
BRANCH  17  20
ATOM     20  N   UNL     1      20.426 -28.653   1.030  1.00  0.00    -0.225 NA
ATOM     21  H   UNL     1      21.238 -28.112   0.725  1.00  0.00    +0.137 HD
ATOM     22  H   UNL     1      20.244 -28.537   2.025  1.00  0.00    +0.137 HD
ENDBRANCH  17  20
ENDBRANCH  16  17
ENDBRANCH   3  11
ENDBRANCH   1   2
BRANCH   1  23
ATOM     23  C   UNL     1      16.028 -18.710   0.661  1.00  0.00    +0.182 C 
ATOM     24  O   UNL     1      16.667 -17.779   0.169  1.00  0.00    -0.292 OA
BRANCH  23  25
ATOM     25  C   UNL     1      15.310 -18.490   1.954  1.00  0.00    +0.023 A 
ATOM     26  C   UNL     1      14.390 -17.437   2.034  1.00  0.00    +0.012 A 
ATOM     27  C   UNL     1      15.522 -19.295   3.080  1.00  0.00    +0.058 A 
ATOM     28  C   UNL     1      13.697 -17.196   3.220  1.00  0.00    +0.005 A 
ATOM     29  C   UNL     1      14.828 -19.056   4.276  1.00  0.00    +0.130 A 
ATOM     30  C   UNL     1      13.915 -18.003   4.339  1.00  0.00    +0.047 A 
BRANCH  29  31
ATOM     31  O   UNL     1      15.140 -19.920   5.286  1.00  0.00    -0.406 OA
BRANCH  31  32
ATOM     32  C   UNL     1      14.490 -21.182   5.306  1.00  0.00    +0.573 C 
ATOM     33  F   UNL     1      14.603 -21.706   6.545  1.00  0.00    -0.132 F 
ATOM     34  F   UNL     1      13.177 -21.055   5.021  1.00  0.00    -0.132 F 
ATOM     35  F   UNL     1      15.064 -22.037   4.433  1.00  0.00    -0.132 F 
ENDBRANCH  31  32
ENDBRANCH  29  31
ENDBRANCH  23  25
ENDBRANCH   1  23
TORSDOF 8
ENDMDL
MODEL 9
REMARK VINA RESULT:    -7.956      4.511      7.840
REMARK INTER + INTRA:         -13.579
REMARK INTER:                 -12.320
REMARK INTRA:                  -1.260
REMARK UNBOUND:                -2.135
REMARK SMILES CC1(c2ccc(S(N)(=O)=O)cc2)NC(=O)N(CC(=O)c2cccc(OC(F)(F)F)c2)C1=O
REMARK SMILES IDX 17 1 16 2 2 3 13 4 31 5 14 6 32 7 15 8 1 9 3 11 4 12 12 13
REMARK SMILES IDX 5 14 11 15 6 16 7 17 9 18 10 19 8 20 18 23 19 24 20 25 21 26
REMARK SMILES IDX 30 27 22 28 24 29 23 30 25 31 26 32 27 33 28 34 29 35
REMARK H PARENT 13 10 8 21 8 22
ROOT
ATOM      1  C   UNL     1      18.010 -20.191   1.741  1.00  0.00    +0.211 C 
ENDROOT
BRANCH   1   2
ATOM      2  N   UNL     1      17.785 -20.984   0.554  1.00  0.00    -0.254 N 
ATOM      3  C   UNL     1      17.732 -21.714  -1.698  1.00  0.00    +0.144 C 
ATOM      4  N   UNL     1      17.447 -22.759  -0.736  1.00  0.00    -0.319 N 
ATOM      5  C   UNL     1      17.972 -20.534  -0.725  1.00  0.00    +0.261 C 
ATOM      6  C   UNL     1      17.512 -22.314   0.562  1.00  0.00    +0.325 C 
ATOM      7  O   UNL     1      18.255 -19.386  -1.042  1.00  0.00    -0.271 OA
ATOM      8  O   UNL     1      17.350 -23.028   1.538  1.00  0.00    -0.248 OA
ATOM      9  C   UNL     1      16.461 -21.398  -2.494  1.00  0.00    +0.051 C 
ATOM     10  H   UNL     1      17.350 -23.743  -0.947  1.00  0.00    +0.166 HD
BRANCH   3  11
ATOM     11  C   UNL     1      18.968 -22.078  -2.519  1.00  0.00    -0.013 A 
ATOM     12  C   UNL     1      19.248 -21.478  -3.761  1.00  0.00    +0.008 A 
ATOM     13  C   UNL     1      19.865 -23.064  -2.053  1.00  0.00    +0.008 A 
ATOM     14  C   UNL     1      20.379 -21.837  -4.501  1.00  0.00    +0.022 A 
ATOM     15  C   UNL     1      21.000 -23.423  -2.783  1.00  0.00    +0.022 A 
ATOM     16  C   UNL     1      21.246 -22.813  -4.011  1.00  0.00    +0.082 A 
BRANCH  16  17
ATOM     17  S   UNL     1      22.685 -23.259  -4.945  1.00  0.00    +0.238 S 
ATOM     18  O   UNL     1      22.449 -22.943  -6.333  1.00  0.00    -0.207 OA
ATOM     19  O   UNL     1      23.857 -22.808  -4.232  1.00  0.00    -0.207 OA
BRANCH  17  20
ATOM     20  N   UNL     1      22.675 -24.937  -4.790  1.00  0.00    -0.225 NA
ATOM     21  H   UNL     1      23.004 -25.180  -3.854  1.00  0.00    +0.137 HD
ATOM     22  H   UNL     1      21.767 -25.353  -4.993  1.00  0.00    +0.137 HD
ENDBRANCH  17  20
ENDBRANCH  16  17
ENDBRANCH   3  11
ENDBRANCH   1   2
BRANCH   1  23
ATOM     23  C   UNL     1      16.692 -19.575   2.204  1.00  0.00    +0.182 C 
ATOM     24  O   UNL     1      16.121 -18.679   1.580  1.00  0.00    -0.292 OA
BRANCH  23  25
ATOM     25  C   UNL     1      16.073 -20.088   3.464  1.00  0.00    +0.023 A 
ATOM     26  C   UNL     1      16.752 -21.079   4.184  1.00  0.00    +0.012 A 
ATOM     27  C   UNL     1      14.847 -19.616   3.948  1.00  0.00    +0.058 A 
ATOM     28  C   UNL     1      16.212 -21.586   5.365  1.00  0.00    +0.005 A 
ATOM     29  C   UNL     1      14.299 -20.123   5.136  1.00  0.00    +0.130 A 
ATOM     30  C   UNL     1      14.989 -21.110   5.841  1.00  0.00    +0.047 A 
BRANCH  29  31
ATOM     31  O   UNL     1      13.100 -19.567   5.481  1.00  0.00    -0.406 OA
BRANCH  31  32
ATOM     32  C   UNL     1      13.100 -18.232   5.962  1.00  0.00    +0.573 C 
ATOM     33  F   UNL     1      12.735 -17.410   4.954  1.00  0.00    -0.132 F 
ATOM     34  F   UNL     1      12.216 -18.080   6.970  1.00  0.00    -0.132 F 
ATOM     35  F   UNL     1      14.331 -17.866   6.378  1.00  0.00    -0.132 F 
ENDBRANCH  31  32
ENDBRANCH  29  31
ENDBRANCH  23  25
ENDBRANCH   1  23
TORSDOF 8
ENDMDL
