MODEL 1
REMARK VINA RESULT:    -8.768      0.000      0.000
REMARK INTER + INTRA:         -12.136
REMARK INTER:                 -11.331
REMARK INTRA:                  -0.805
REMARK UNBOUND:                -0.805
REMARK SMILES COC(=O)NC(=O)c1ccsc1NC(=O)c1ccc(C(=O)N2CCCCC2)cc1
REMARK SMILES IDX 8 1 9 2 10 3 11 4 12 5 6 6 3 7 4 8 5 9 7 10 2 12 1 13 13 14
REMARK SMILES IDX 14 15 15 16 16 18 17 19 29 20 18 21 28 22 19 23 20 24 21 25
REMARK SMILES IDX 22 26 23 27 27 28 24 29 26 30 25 31
REMARK H PARENT 5 11 13 17
ROOT
ATOM      1  C   UNL     1      15.604 -20.202   4.429  1.00  0.00    +0.075 A 
ATOM      2  C   UNL     1      15.302 -20.460   5.815  1.00  0.00    +0.028 A 
ATOM      3  C   UNL     1      15.933 -21.584   6.298  1.00  0.00    +0.068 A 
ATOM      4  S   UNL     1      16.876 -22.342   5.101  1.00  0.00    -0.126 S 
ATOM      5  C   UNL     1      16.459 -21.184   3.933  1.00  0.00    +0.108 A 
ENDROOT
BRANCH   1   6
ATOM      6  C   UNL     1      15.111 -19.102   3.580  1.00  0.00    +0.263 C 
ATOM      7  C   UNL     1      13.546 -17.242   3.572  1.00  0.00    +0.413 C 
ATOM      8  O   UNL     1      13.654 -16.866   2.417  1.00  0.00    -0.224 OA
ATOM      9  N   UNL     1      14.148 -18.313   4.164  1.00  0.00    -0.257 N 
ATOM     10  O   UNL     1      15.571 -18.930   2.455  1.00  0.00    -0.269 OA
ATOM     11  H   UNL     1      13.901 -18.438   5.129  1.00  0.00    +0.176 HD
BRANCH   7  12
ATOM     12  O   UNL     1      12.752 -16.643   4.501  1.00  0.00    -0.453 OA
ATOM     13  C   UNL     1      12.771 -17.282   5.780  1.00  0.00    +0.284 C 
ENDBRANCH   7  12
ENDBRANCH   1   6
BRANCH   5  14
ATOM     14  N   UNL     1      16.936 -21.258   2.631  1.00  0.00    -0.313 N 
ATOM     15  C   UNL     1      16.799 -22.303   1.740  1.00  0.00    +0.256 C 
ATOM     16  O   UNL     1      16.286 -23.398   1.946  1.00  0.00    -0.269 OA
ATOM     17  H   UNL     1      17.480 -20.444   2.345  1.00  0.00    +0.171 HD
BRANCH  15  18
ATOM     18  C   UNL     1      17.384 -22.058   0.385  1.00  0.00    +0.040 A 
ATOM     19  C   UNL     1      16.845 -22.625  -0.779  1.00  0.00    +0.014 A 
ATOM     20  C   UNL     1      18.526 -21.246   0.297  1.00  0.00    +0.014 A 
ATOM     21  C   UNL     1      17.439 -22.369  -2.020  1.00  0.00    +0.014 A 
ATOM     22  C   UNL     1      19.118 -20.992  -0.943  1.00  0.00    +0.014 A 
ATOM     23  C   UNL     1      18.582 -21.569  -2.097  1.00  0.00    +0.040 A 
BRANCH  23  24
ATOM     24  C   UNL     1      19.179 -21.303  -3.427  1.00  0.00    +0.253 C 
ATOM     25  O   UNL     1      18.636 -20.457  -4.133  1.00  0.00    -0.269 OA
ATOM     26  N   UNL     1      20.317 -22.011  -3.812  1.00  0.00    -0.339 N 
ATOM     27  C   UNL     1      20.949 -21.638  -5.075  1.00  0.00    +0.120 C 
ATOM     28  C   UNL     1      20.784 -23.240  -3.163  1.00  0.00    +0.120 C 
ATOM     29  C   UNL     1      22.403 -22.091  -5.133  1.00  0.00    +0.022 C 
ATOM     30  C   UNL     1      21.383 -24.220  -4.167  1.00  0.00    +0.022 C 
ATOM     31  C   UNL     1      22.540 -23.604  -4.953  1.00  0.00    +0.004 C 
ENDBRANCH  23  24
ENDBRANCH  15  18
ENDBRANCH   5  14
TORSDOF 5
ENDMDL
MODEL 2
REMARK VINA RESULT:    -8.601      2.930      4.689
REMARK INTER + INTRA:         -11.920
REMARK INTER:                 -11.708
REMARK INTRA:                  -0.212
REMARK UNBOUND:                -0.805
REMARK SMILES COC(=O)NC(=O)c1ccsc1NC(=O)c1ccc(C(=O)N2CCCCC2)cc1
REMARK SMILES IDX 8 1 9 2 10 3 11 4 12 5 6 6 3 7 4 8 5 9 7 10 2 12 1 13 13 14
REMARK SMILES IDX 14 15 15 16 16 18 17 19 29 20 18 21 28 22 19 23 20 24 21 25
REMARK SMILES IDX 22 26 23 27 27 28 24 29 26 30 25 31
REMARK H PARENT 5 11 13 17
ROOT
ATOM      1  C   UNL     1      13.844 -17.838   5.182  1.00  0.00    +0.075 A 
ATOM      2  C   UNL     1      12.800 -17.032   5.764  1.00  0.00    +0.028 A 
ATOM      3  C   UNL     1      12.012 -16.416   4.818  1.00  0.00    +0.068 A 
ATOM      4  S   UNL     1      12.520 -16.786   3.236  1.00  0.00    -0.126 S 
ATOM      5  C   UNL     1      13.787 -17.769   3.792  1.00  0.00    +0.108 A 
ENDROOT
BRANCH   1   6
ATOM      6  C   UNL     1      14.873 -18.633   5.877  1.00  0.00    +0.263 C 
ATOM      7  C   UNL     1      15.819 -20.870   5.984  1.00  0.00    +0.413 C 
ATOM      8  O   UNL     1      16.583 -20.743   6.925  1.00  0.00    -0.224 OA
ATOM      9  N   UNL     1      14.949 -19.948   5.481  1.00  0.00    -0.257 N 
ATOM     10  O   UNL     1      15.596 -18.112   6.721  1.00  0.00    -0.269 OA
ATOM     11  H   UNL     1      14.406 -20.280   4.705  1.00  0.00    +0.176 HD
BRANCH   7  12
ATOM     12  O   UNL     1      15.681 -22.013   5.258  1.00  0.00    -0.453 OA
ATOM     13  C   UNL     1      16.793 -22.297   4.406  1.00  0.00    +0.284 C 
ENDBRANCH   7  12
ENDBRANCH   1   6
BRANCH   5  14
ATOM     14  N   UNL     1      14.654 -18.406   2.914  1.00  0.00    -0.313 N 
ATOM     15  C   UNL     1      15.212 -17.894   1.760  1.00  0.00    +0.256 C 
ATOM     16  O   UNL     1      15.000 -16.800   1.249  1.00  0.00    -0.269 OA
ATOM     17  H   UNL     1      14.849 -19.376   3.160  1.00  0.00    +0.171 HD
BRANCH  15  18
ATOM     18  C   UNL     1      16.155 -18.816   1.054  1.00  0.00    +0.040 A 
ATOM     19  C   UNL     1      16.093 -19.038  -0.330  1.00  0.00    +0.014 A 
ATOM     20  C   UNL     1      17.116 -19.493   1.822  1.00  0.00    +0.014 A 
ATOM     21  C   UNL     1      16.994 -19.920  -0.937  1.00  0.00    +0.014 A 
ATOM     22  C   UNL     1      18.015 -20.373   1.215  1.00  0.00    +0.014 A 
ATOM     23  C   UNL     1      17.940 -20.598  -0.163  1.00  0.00    +0.040 A 
BRANCH  23  24
ATOM     24  C   UNL     1      18.891 -21.512  -0.837  1.00  0.00    +0.253 C 
ATOM     25  O   UNL     1      19.508 -21.076  -1.805  1.00  0.00    -0.269 OA
ATOM     26  N   UNL     1      19.047 -22.808  -0.346  1.00  0.00    -0.339 N 
ATOM     27  C   UNL     1      20.080 -23.642  -0.957  1.00  0.00    +0.120 C 
ATOM     28  C   UNL     1      18.106 -23.464   0.568  1.00  0.00    +0.120 C 
ATOM     29  C   UNL     1      20.494 -24.787  -0.040  1.00  0.00    +0.022 C 
ATOM     30  C   UNL     1      17.967 -24.953   0.269  1.00  0.00    +0.022 C 
ATOM     31  C   UNL     1      19.310 -25.681   0.333  1.00  0.00    +0.004 C 
ENDBRANCH  23  24
ENDBRANCH  15  18
ENDBRANCH   5  14
TORSDOF 5
ENDMDL
MODEL 3
REMARK VINA RESULT:    -8.571      2.415      9.439
REMARK INTER + INTRA:         -11.881
REMARK INTER:                 -11.250
REMARK INTRA:                  -0.631
REMARK UNBOUND:                -0.805
REMARK SMILES COC(=O)NC(=O)c1ccsc1NC(=O)c1ccc(C(=O)N2CCCCC2)cc1
REMARK SMILES IDX 8 1 9 2 10 3 11 4 12 5 6 6 3 7 4 8 5 9 7 10 2 12 1 13 13 14
REMARK SMILES IDX 14 15 15 16 16 18 17 19 29 20 18 21 28 22 19 23 20 24 21 25
REMARK SMILES IDX 22 26 23 27 27 28 24 29 26 30 25 31
REMARK H PARENT 5 11 13 17
ROOT
ATOM      1  C   UNL     1      20.831 -23.176  -2.007  1.00  0.00    +0.075 A 
ATOM      2  C   UNL     1      21.764 -24.275  -2.040  1.00  0.00    +0.028 A 
ATOM      3  C   UNL     1      21.793 -24.986  -0.861  1.00  0.00    +0.068 A 
ATOM      4  S   UNL     1      20.720 -24.339   0.292  1.00  0.00    -0.126 S 
ATOM      5  C   UNL     1      20.205 -23.115  -0.764  1.00  0.00    +0.108 A 
ENDROOT
BRANCH   1   6
ATOM      6  C   UNL     1      20.536 -22.203  -3.073  1.00  0.00    +0.263 C 
ATOM      7  C   UNL     1      20.232 -22.029  -5.479  1.00  0.00    +0.413 C 
ATOM      8  O   UNL     1      20.123 -20.821  -5.603  1.00  0.00    -0.224 OA
ATOM      9  N   UNL     1      20.486 -22.735  -4.341  1.00  0.00    -0.257 N 
ATOM     10  O   UNL     1      20.334 -21.023  -2.801  1.00  0.00    -0.269 OA
ATOM     11  H   UNL     1      20.545 -23.727  -4.481  1.00  0.00    +0.176 HD
BRANCH   7  12
ATOM     12  O   UNL     1      20.138 -22.915  -6.508  1.00  0.00    -0.453 OA
ATOM     13  C   UNL     1      20.921 -22.562  -7.651  1.00  0.00    +0.284 C 
ENDBRANCH   7  12
ENDBRANCH   1   6
BRANCH   5  14
ATOM     14  N   UNL     1      19.265 -22.168  -0.378  1.00  0.00    -0.313 N 
ATOM     15  C   UNL     1      17.891 -22.257  -0.472  1.00  0.00    +0.256 C 
ATOM     16  O   UNL     1      17.234 -23.161  -0.975  1.00  0.00    -0.269 OA
ATOM     17  H   UNL     1      19.673 -21.303  -0.024  1.00  0.00    +0.171 HD
BRANCH  15  18
ATOM     18  C   UNL     1      17.144 -21.085   0.082  1.00  0.00    +0.040 A 
ATOM     19  C   UNL     1      16.120 -20.443  -0.630  1.00  0.00    +0.014 A 
ATOM     20  C   UNL     1      17.510 -20.609   1.351  1.00  0.00    +0.014 A 
ATOM     21  C   UNL     1      15.461 -19.344  -0.068  1.00  0.00    +0.014 A 
ATOM     22  C   UNL     1      16.853 -19.511   1.911  1.00  0.00    +0.014 A 
ATOM     23  C   UNL     1      15.840 -18.870   1.192  1.00  0.00    +0.040 A 
BRANCH  23  24
ATOM     24  C   UNL     1      15.114 -17.714   1.767  1.00  0.00    +0.253 C 
ATOM     25  O   UNL     1      15.182 -16.644   1.168  1.00  0.00    -0.269 OA
ATOM     26  N   UNL     1      14.388 -17.890   2.946  1.00  0.00    -0.339 N 
ATOM     27  C   UNL     1      13.586 -16.765   3.419  1.00  0.00    +0.120 C 
ATOM     28  C   UNL     1      14.554 -19.029   3.856  1.00  0.00    +0.120 C 
ATOM     29  C   UNL     1      12.485 -17.219   4.369  1.00  0.00    +0.022 C 
ATOM     30  C   UNL     1      14.397 -18.616   5.316  1.00  0.00    +0.022 C 
ATOM     31  C   UNL     1      13.044 -17.958   5.585  1.00  0.00    +0.004 C 
ENDBRANCH  23  24
ENDBRANCH  15  18
ENDBRANCH   5  14
TORSDOF 5
ENDMDL
MODEL 4
REMARK VINA RESULT:    -8.314      2.950      9.254
REMARK INTER + INTRA:         -11.548
REMARK INTER:                 -10.563
REMARK INTRA:                  -0.985
REMARK UNBOUND:                -0.805
REMARK SMILES COC(=O)NC(=O)c1ccsc1NC(=O)c1ccc(C(=O)N2CCCCC2)cc1
REMARK SMILES IDX 8 1 9 2 10 3 11 4 12 5 6 6 3 7 4 8 5 9 7 10 2 12 1 13 13 14
REMARK SMILES IDX 14 15 15 16 16 18 17 19 29 20 18 21 28 22 19 23 20 24 21 25
REMARK SMILES IDX 22 26 23 27 27 28 24 29 26 30 25 31
REMARK H PARENT 5 11 13 17
ROOT
ATOM      1  C   UNL     1      21.706 -23.020   0.258  1.00  0.00    +0.075 A 
ATOM      2  C   UNL     1      23.103 -23.243  -0.020  1.00  0.00    +0.028 A 
ATOM      3  C   UNL     1      23.884 -23.214   1.113  1.00  0.00    +0.068 A 
ATOM      4  S   UNL     1      22.958 -22.910   2.509  1.00  0.00    -0.126 S 
ATOM      5  C   UNL     1      21.514 -22.818   1.622  1.00  0.00    +0.108 A 
ENDROOT
BRANCH   1   6
ATOM      6  C   UNL     1      20.584 -22.976  -0.698  1.00  0.00    +0.263 C 
ATOM      7  C   UNL     1      19.908 -21.990  -2.814  1.00  0.00    +0.413 C 
ATOM      8  O   UNL     1      18.750 -22.369  -2.876  1.00  0.00    -0.224 OA
ATOM      9  N   UNL     1      20.799 -22.184  -1.802  1.00  0.00    -0.257 N 
ATOM     10  O   UNL     1      19.567 -23.631  -0.493  1.00  0.00    -0.269 OA
ATOM     11  H   UNL     1      21.699 -21.768  -1.965  1.00  0.00    +0.176 HD
BRANCH   7  12
ATOM     12  O   UNL     1      20.525 -21.254  -3.779  1.00  0.00    -0.453 OA
ATOM     13  C   UNL     1      20.199 -21.655  -5.112  1.00  0.00    +0.284 C 
ENDBRANCH   7  12
ENDBRANCH   1   6
BRANCH   5  14
ATOM     14  N   UNL     1      20.297 -22.555   2.238  1.00  0.00    -0.313 N 
ATOM     15  C   UNL     1      19.555 -23.402   3.035  1.00  0.00    +0.256 C 
ATOM     16  O   UNL     1      19.791 -24.575   3.302  1.00  0.00    -0.269 OA
ATOM     17  H   UNL     1      19.918 -21.633   2.024  1.00  0.00    +0.171 HD
BRANCH  15  18
ATOM     18  C   UNL     1      18.304 -22.803   3.597  1.00  0.00    +0.040 A 
ATOM     19  C   UNL     1      18.254 -22.230   4.876  1.00  0.00    +0.014 A 
ATOM     20  C   UNL     1      17.141 -22.846   2.811  1.00  0.00    +0.014 A 
ATOM     21  C   UNL     1      17.054 -21.693   5.355  1.00  0.00    +0.014 A 
ATOM     22  C   UNL     1      15.943 -22.311   3.291  1.00  0.00    +0.014 A 
ATOM     23  C   UNL     1      15.899 -21.751   4.570  1.00  0.00    +0.040 A 
BRANCH  23  24
ATOM     24  C   UNL     1      14.647 -21.160   5.098  1.00  0.00    +0.253 C 
ATOM     25  O   UNL     1      13.895 -21.896   5.731  1.00  0.00    -0.269 OA
ATOM     26  N   UNL     1      14.384 -19.810   4.863  1.00  0.00    -0.339 N 
ATOM     27  C   UNL     1      13.204 -19.231   5.500  1.00  0.00    +0.120 C 
ATOM     28  C   UNL     1      15.067 -19.000   3.848  1.00  0.00    +0.120 C 
ATOM     29  C   UNL     1      13.304 -17.714   5.597  1.00  0.00    +0.022 C 
ATOM     30  C   UNL     1      14.126 -17.992   3.198  1.00  0.00    +0.022 C 
ATOM     31  C   UNL     1      13.481 -17.061   4.225  1.00  0.00    +0.004 C 
ENDBRANCH  23  24
ENDBRANCH  15  18
ENDBRANCH   5  14
TORSDOF 5
ENDMDL
MODEL 5
REMARK VINA RESULT:    -8.160      4.795      5.740
REMARK INTER + INTRA:         -11.350
REMARK INTER:                 -10.610
REMARK INTRA:                  -0.740
REMARK UNBOUND:                -0.805
REMARK SMILES COC(=O)NC(=O)c1ccsc1NC(=O)c1ccc(C(=O)N2CCCCC2)cc1
REMARK SMILES IDX 8 1 9 2 10 3 11 4 12 5 6 6 3 7 4 8 5 9 7 10 2 12 1 13 13 14
REMARK SMILES IDX 14 15 15 16 16 18 17 19 29 20 18 21 28 22 19 23 20 24 21 25
REMARK SMILES IDX 22 26 23 27 27 28 24 29 26 30 25 31
REMARK H PARENT 5 11 13 17
ROOT
ATOM      1  C   UNL     1      15.711 -20.303   3.977  1.00  0.00    +0.075 A 
ATOM      2  C   UNL     1      14.452 -20.064   4.640  1.00  0.00    +0.028 A 
ATOM      3  C   UNL     1      14.320 -20.781   5.808  1.00  0.00    +0.068 A 
ATOM      4  S   UNL     1      15.688 -21.748   6.113  1.00  0.00    -0.126 S 
ATOM      5  C   UNL     1      16.468 -21.222   4.700  1.00  0.00    +0.108 A 
ENDROOT
BRANCH   1   6
ATOM      6  C   UNL     1      16.196 -19.721   2.713  1.00  0.00    +0.263 C 
ATOM      7  C   UNL     1      15.813 -17.872   1.182  1.00  0.00    +0.413 C 
ATOM      8  O   UNL     1      16.580 -18.167   0.281  1.00  0.00    -0.224 OA
ATOM      9  N   UNL     1      15.540 -18.580   2.315  1.00  0.00    -0.257 N 
ATOM     10  O   UNL     1      17.133 -20.237   2.110  1.00  0.00    -0.269 OA
ATOM     11  H   UNL     1      14.861 -18.146   2.913  1.00  0.00    +0.176 HD
BRANCH   7  12
ATOM     12  O   UNL     1      15.048 -16.746   1.198  1.00  0.00    -0.453 OA
ATOM     13  C   UNL     1      14.056 -16.733   2.229  1.00  0.00    +0.284 C 
ENDBRANCH   7  12
ENDBRANCH   1   6
BRANCH   5  14
ATOM     14  N   UNL     1      17.723 -21.696   4.341  1.00  0.00    -0.313 N 
ATOM     15  C   UNL     1      18.018 -22.811   3.583  1.00  0.00    +0.256 C 
ATOM     16  O   UNL     1      17.233 -23.638   3.134  1.00  0.00    -0.269 OA
ATOM     17  H   UNL     1      18.494 -21.155   4.732  1.00  0.00    +0.171 HD
BRANCH  15  18
ATOM     18  C   UNL     1      19.476 -23.029   3.325  1.00  0.00    +0.040 A 
ATOM     19  C   UNL     1      20.129 -22.490   2.208  1.00  0.00    +0.014 A 
ATOM     20  C   UNL     1      20.195 -23.822   4.234  1.00  0.00    +0.014 A 
ATOM     21  C   UNL     1      21.493 -22.735   2.010  1.00  0.00    +0.014 A 
ATOM     22  C   UNL     1      21.556 -24.067   4.035  1.00  0.00    +0.014 A 
ATOM     23  C   UNL     1      22.198 -23.536   2.913  1.00  0.00    +0.040 A 
BRANCH  23  24
ATOM     24  C   UNL     1      23.644 -23.763   2.686  1.00  0.00    +0.253 C 
ATOM     25  O   UNL     1      23.966 -24.721   1.988  1.00  0.00    -0.269 OA
ATOM     26  N   UNL     1      24.566 -22.889   3.263  1.00  0.00    -0.339 N 
ATOM     27  C   UNL     1      25.974 -23.068   2.919  1.00  0.00    +0.120 C 
ATOM     28  C   UNL     1      24.252 -21.960   4.354  1.00  0.00    +0.120 C 
ATOM     29  C   UNL     1      26.782 -21.802   3.173  1.00  0.00    +0.022 C 
ATOM     30  C   UNL     1      25.417 -21.814   5.328  1.00  0.00    +0.022 C 
ATOM     31  C   UNL     1      26.695 -21.347   4.630  1.00  0.00    +0.004 C 
ENDBRANCH  23  24
ENDBRANCH  15  18
ENDBRANCH   5  14
TORSDOF 5
ENDMDL
MODEL 6
REMARK VINA RESULT:    -8.145      5.260      6.497
REMARK INTER + INTRA:         -11.330
REMARK INTER:                 -10.390
REMARK INTRA:                  -0.940
REMARK UNBOUND:                -0.805
REMARK SMILES COC(=O)NC(=O)c1ccsc1NC(=O)c1ccc(C(=O)N2CCCCC2)cc1
REMARK SMILES IDX 8 1 9 2 10 3 11 4 12 5 6 6 3 7 4 8 5 9 7 10 2 12 1 13 13 14
REMARK SMILES IDX 14 15 15 16 16 18 17 19 29 20 18 21 28 22 19 23 20 24 21 25
REMARK SMILES IDX 22 26 23 27 27 28 24 29 26 30 25 31
REMARK H PARENT 5 11 13 17
ROOT
ATOM      1  C   UNL     1      16.351 -19.575   2.435  1.00  0.00    +0.075 A 
ATOM      2  C   UNL     1      15.449 -18.765   1.654  1.00  0.00    +0.028 A 
ATOM      3  C   UNL     1      15.839 -18.650   0.339  1.00  0.00    +0.068 A 
ATOM      4  S   UNL     1      17.284 -19.495   0.032  1.00  0.00    -0.126 S 
ATOM      5  C   UNL     1      17.404 -20.024   1.640  1.00  0.00    +0.108 A 
ENDROOT
BRANCH   1   6
ATOM      6  C   UNL     1      16.261 -19.913   3.867  1.00  0.00    +0.263 C 
ATOM      7  C   UNL     1      15.625 -18.980   6.019  1.00  0.00    +0.413 C 
ATOM      8  O   UNL     1      15.961 -19.886   6.762  1.00  0.00    -0.224 OA
ATOM      9  N   UNL     1      15.791 -18.899   4.668  1.00  0.00    -0.257 N 
ATOM     10  O   UNL     1      16.572 -21.032   4.262  1.00  0.00    -0.269 OA
ATOM     11  H   UNL     1      15.445 -18.048   4.265  1.00  0.00    +0.176 HD
BRANCH   7  12
ATOM     12  O   UNL     1      15.023 -17.832   6.435  1.00  0.00    -0.453 OA
ATOM     13  C   UNL     1      13.848 -17.491   5.696  1.00  0.00    +0.284 C 
ENDBRANCH   7  12
ENDBRANCH   1   6
BRANCH   5  14
ATOM     14  N   UNL     1      18.464 -20.810   2.072  1.00  0.00    -0.313 N 
ATOM     15  C   UNL     1      18.609 -22.176   1.941  1.00  0.00    +0.256 C 
ATOM     16  O   UNL     1      17.800 -22.972   1.478  1.00  0.00    -0.269 OA
ATOM     17  H   UNL     1      19.185 -20.290   2.573  1.00  0.00    +0.171 HD
BRANCH  15  18
ATOM     18  C   UNL     1      19.898 -22.726   2.465  1.00  0.00    +0.040 A 
ATOM     19  C   UNL     1      19.981 -23.414   3.684  1.00  0.00    +0.014 A 
ATOM     20  C   UNL     1      21.062 -22.517   1.706  1.00  0.00    +0.014 A 
ATOM     21  C   UNL     1      21.215 -23.898   4.132  1.00  0.00    +0.014 A 
ATOM     22  C   UNL     1      22.294 -23.001   2.154  1.00  0.00    +0.014 A 
ATOM     23  C   UNL     1      22.370 -23.676   3.376  1.00  0.00    +0.040 A 
BRANCH  23  24
ATOM     24  C   UNL     1      23.659 -24.215   3.867  1.00  0.00    +0.253 C 
ATOM     25  O   UNL     1      23.800 -25.435   3.869  1.00  0.00    -0.269 OA
ATOM     26  N   UNL     1      24.645 -23.327   4.295  1.00  0.00    -0.339 N 
ATOM     27  C   UNL     1      25.946 -23.884   4.657  1.00  0.00    +0.120 C 
ATOM     28  C   UNL     1      24.402 -21.918   4.624  1.00  0.00    +0.120 C 
ATOM     29  C   UNL     1      27.045 -22.830   4.604  1.00  0.00    +0.022 C 
ATOM     30  C   UNL     1      25.260 -21.452   5.796  1.00  0.00    +0.022 C 
ATOM     31  C   UNL     1      26.753 -21.648   5.529  1.00  0.00    +0.004 C 
ENDBRANCH  23  24
ENDBRANCH  15  18
ENDBRANCH   5  14
TORSDOF 5
ENDMDL
MODEL 7
REMARK VINA RESULT:    -8.142      1.202      2.214
REMARK INTER + INTRA:         -11.327
REMARK INTER:                 -11.087
REMARK INTRA:                  -0.240
REMARK UNBOUND:                -0.805
REMARK SMILES COC(=O)NC(=O)c1ccsc1NC(=O)c1ccc(C(=O)N2CCCCC2)cc1
REMARK SMILES IDX 8 1 9 2 10 3 11 4 12 5 6 6 3 7 4 8 5 9 7 10 2 12 1 13 13 14
REMARK SMILES IDX 14 15 15 16 16 18 17 19 29 20 18 21 28 22 19 23 20 24 21 25
REMARK SMILES IDX 22 26 23 27 27 28 24 29 26 30 25 31
REMARK H PARENT 5 11 13 17
ROOT
ATOM      1  C   UNL     1      15.613 -20.078   4.300  1.00  0.00    +0.075 A 
ATOM      2  C   UNL     1      15.221 -20.297   5.670  1.00  0.00    +0.028 A 
ATOM      3  C   UNL     1      15.793 -21.424   6.215  1.00  0.00    +0.068 A 
ATOM      4  S   UNL     1      16.789 -22.231   5.094  1.00  0.00    -0.126 S 
ATOM      5  C   UNL     1      16.472 -21.090   3.878  1.00  0.00    +0.108 A 
ENDROOT
BRANCH   1   6
ATOM      6  C   UNL     1      15.200 -18.986   3.400  1.00  0.00    +0.263 C 
ATOM      7  C   UNL     1      15.758 -17.934   1.281  1.00  0.00    +0.413 C 
ATOM      8  O   UNL     1      14.988 -16.988   1.293  1.00  0.00    -0.224 OA
ATOM      9  N   UNL     1      15.952 -18.868   2.255  1.00  0.00    -0.257 N 
ATOM     10  O   UNL     1      14.238 -18.277   3.683  1.00  0.00    -0.269 OA
ATOM     11  H   UNL     1      16.650 -19.553   2.030  1.00  0.00    +0.176 HD
BRANCH   7  12
ATOM     12  O   UNL     1      16.609 -18.216   0.256  1.00  0.00    -0.453 OA
ATOM     13  C   UNL     1      16.024 -19.003  -0.785  1.00  0.00    +0.284 C 
ENDBRANCH   7  12
ENDBRANCH   1   6
BRANCH   5  14
ATOM     14  N   UNL     1      17.025 -21.204   2.610  1.00  0.00    -0.313 N 
ATOM     15  C   UNL     1      16.870 -22.241   1.712  1.00  0.00    +0.256 C 
ATOM     16  O   UNL     1      16.267 -23.294   1.885  1.00  0.00    -0.269 OA
ATOM     17  H   UNL     1      17.644 -20.433   2.359  1.00  0.00    +0.171 HD
BRANCH  15  18
ATOM     18  C   UNL     1      17.557 -22.045   0.398  1.00  0.00    +0.040 A 
ATOM     19  C   UNL     1      18.686 -21.225   0.256  1.00  0.00    +0.014 A 
ATOM     20  C   UNL     1      17.027 -22.695  -0.728  1.00  0.00    +0.014 A 
ATOM     21  C   UNL     1      19.283 -21.069  -1.000  1.00  0.00    +0.014 A 
ATOM     22  C   UNL     1      17.623 -22.539  -1.981  1.00  0.00    +0.014 A 
ATOM     23  C   UNL     1      18.741 -21.711  -2.117  1.00  0.00    +0.040 A 
BRANCH  23  24
ATOM     24  C   UNL     1      19.405 -21.540  -3.431  1.00  0.00    +0.253 C 
ATOM     25  O   UNL     1      18.913 -20.733  -4.215  1.00  0.00    -0.269 OA
ATOM     26  N   UNL     1      20.547 -22.288  -3.714  1.00  0.00    -0.339 N 
ATOM     27  C   UNL     1      21.246 -22.007  -4.966  1.00  0.00    +0.120 C 
ATOM     28  C   UNL     1      20.960 -23.481  -2.966  1.00  0.00    +0.120 C 
ATOM     29  C   UNL     1      22.692 -22.485  -4.923  1.00  0.00    +0.022 C 
ATOM     30  C   UNL     1      21.589 -24.532  -3.875  1.00  0.00    +0.022 C 
ATOM     31  C   UNL     1      22.793 -23.985  -4.641  1.00  0.00    +0.004 C 
ENDBRANCH  23  24
ENDBRANCH  15  18
ENDBRANCH   5  14
TORSDOF 5
ENDMDL
MODEL 8
REMARK VINA RESULT:    -8.004      3.706      8.940
REMARK INTER + INTRA:         -11.149
REMARK INTER:                 -10.563
REMARK INTRA:                  -0.585
REMARK UNBOUND:                -0.805
REMARK SMILES COC(=O)NC(=O)c1ccsc1NC(=O)c1ccc(C(=O)N2CCCCC2)cc1
REMARK SMILES IDX 8 1 9 2 10 3 11 4 12 5 6 6 3 7 4 8 5 9 7 10 2 12 1 13 13 14
REMARK SMILES IDX 14 15 15 16 16 18 17 19 29 20 18 21 28 22 19 23 20 24 21 25
REMARK SMILES IDX 22 26 23 27 27 28 24 29 26 30 25 31
REMARK H PARENT 5 11 13 17
ROOT
ATOM      1  C   UNL     1      21.135 -23.548   0.315  1.00  0.00    +0.075 A 
ATOM      2  C   UNL     1      22.074 -24.358  -0.422  1.00  0.00    +0.028 A 
ATOM      3  C   UNL     1      22.052 -24.103  -1.774  1.00  0.00    +0.068 A 
ATOM      4  S   UNL     1      20.905 -22.909  -2.173  1.00  0.00    -0.126 S 
ATOM      5  C   UNL     1      20.432 -22.717  -0.554  1.00  0.00    +0.108 A 
ENDROOT
BRANCH   1   6
ATOM      6  C   UNL     1      20.877 -23.549   1.766  1.00  0.00    +0.263 C 
ATOM      7  C   UNL     1      21.992 -23.813   3.910  1.00  0.00    +0.413 C 
ATOM      8  O   UNL     1      21.034 -23.789   4.663  1.00  0.00    -0.224 OA
ATOM      9  N   UNL     1      21.988 -23.767   2.548  1.00  0.00    -0.257 N 
ATOM     10  O   UNL     1      19.747 -23.343   2.197  1.00  0.00    -0.269 OA
ATOM     11  H   UNL     1      22.902 -23.812   2.135  1.00  0.00    +0.176 HD
BRANCH   7  12
ATOM     12  O   UNL     1      23.286 -23.918   4.321  1.00  0.00    -0.453 OA
ATOM     13  C   UNL     1      24.004 -22.681   4.300  1.00  0.00    +0.284 C 
ENDBRANCH   7  12
ENDBRANCH   1   6
BRANCH   5  14
ATOM     14  N   UNL     1      19.436 -21.822  -0.188  1.00  0.00    -0.313 N 
ATOM     15  C   UNL     1      18.073 -21.957  -0.365  1.00  0.00    +0.256 C 
ATOM     16  O   UNL     1      17.481 -22.863  -0.940  1.00  0.00    -0.269 OA
ATOM     17  H   UNL     1      19.789 -20.957   0.222  1.00  0.00    +0.171 HD
BRANCH  15  18
ATOM     18  C   UNL     1      17.252 -20.835   0.188  1.00  0.00    +0.040 A 
ATOM     19  C   UNL     1      16.222 -20.227  -0.544  1.00  0.00    +0.014 A 
ATOM     20  C   UNL     1      17.552 -20.372   1.479  1.00  0.00    +0.014 A 
ATOM     21  C   UNL     1      15.491 -19.175   0.019  1.00  0.00    +0.014 A 
ATOM     22  C   UNL     1      16.823 -19.321   2.040  1.00  0.00    +0.014 A 
ATOM     23  C   UNL     1      15.804 -18.713   1.301  1.00  0.00    +0.040 A 
BRANCH  23  24
ATOM     24  C   UNL     1      15.003 -17.608   1.876  1.00  0.00    +0.253 C 
ATOM     25  O   UNL     1      14.992 -16.539   1.271  1.00  0.00    -0.269 OA
ATOM     26  N   UNL     1      14.300 -17.827   3.061  1.00  0.00    -0.339 N 
ATOM     27  C   UNL     1      13.424 -16.758   3.535  1.00  0.00    +0.120 C 
ATOM     28  C   UNL     1      14.552 -18.946   3.975  1.00  0.00    +0.120 C 
ATOM     29  C   UNL     1      12.365 -17.283   4.496  1.00  0.00    +0.022 C 
ATOM     30  C   UNL     1      14.377 -18.538   5.434  1.00  0.00    +0.022 C 
ATOM     31  C   UNL     1      12.984 -17.974   5.711  1.00  0.00    +0.004 C 
ENDBRANCH  23  24
ENDBRANCH  15  18
ENDBRANCH   5  14
TORSDOF 5
ENDMDL
MODEL 9
REMARK VINA RESULT:    -7.949      3.355      5.497
REMARK INTER + INTRA:         -11.077
REMARK INTER:                 -10.975
REMARK INTRA:                  -0.102
REMARK UNBOUND:                -0.805
REMARK SMILES COC(=O)NC(=O)c1ccsc1NC(=O)c1ccc(C(=O)N2CCCCC2)cc1
REMARK SMILES IDX 8 1 9 2 10 3 11 4 12 5 6 6 3 7 4 8 5 9 7 10 2 12 1 13 13 14
REMARK SMILES IDX 14 15 15 16 16 18 17 19 29 20 18 21 28 22 19 23 20 24 21 25
REMARK SMILES IDX 22 26 23 27 27 28 24 29 26 30 25 31
REMARK H PARENT 5 11 13 17
ROOT
ATOM      1  C   UNL     1      14.346 -17.678   2.773  1.00  0.00    +0.075 A 
ATOM      2  C   UNL     1      13.236 -16.833   3.139  1.00  0.00    +0.028 A 
ATOM      3  C   UNL     1      12.759 -17.098   4.403  1.00  0.00    +0.068 A 
ATOM      4  S   UNL     1      13.622 -18.360   5.152  1.00  0.00    -0.126 S 
ATOM      5  C   UNL     1      14.639 -18.563   3.808  1.00  0.00    +0.108 A 
ENDROOT
BRANCH   1   6
ATOM      6  C   UNL     1      15.103 -17.685   1.508  1.00  0.00    +0.263 C 
ATOM      7  C   UNL     1      16.122 -19.190  -0.106  1.00  0.00    +0.413 C 
ATOM      8  O   UNL     1      16.673 -18.388  -0.841  1.00  0.00    -0.224 OA
ATOM      9  N   UNL     1      15.426 -18.937   1.038  1.00  0.00    -0.257 N 
ATOM     10  O   UNL     1      15.381 -16.632   0.943  1.00  0.00    -0.269 OA
ATOM     11  H   UNL     1      15.068 -19.760   1.488  1.00  0.00    +0.176 HD
BRANCH   7  12
ATOM     12  O   UNL     1      16.131 -20.538  -0.301  1.00  0.00    -0.453 OA
ATOM     13  C   UNL     1      16.660 -20.938  -1.568  1.00  0.00    +0.284 C 
ENDBRANCH   7  12
ENDBRANCH   1   6
BRANCH   5  14
ATOM     14  N   UNL     1      15.634 -19.531   3.787  1.00  0.00    -0.313 N 
ATOM     15  C   UNL     1      15.545 -20.841   4.212  1.00  0.00    +0.256 C 
ATOM     16  O   UNL     1      14.591 -21.388   4.752  1.00  0.00    -0.269 OA
ATOM     17  H   UNL     1      16.534 -19.190   3.448  1.00  0.00    +0.171 HD
BRANCH  15  18
ATOM     18  C   UNL     1      16.785 -21.655   4.008  1.00  0.00    +0.040 A 
ATOM     19  C   UNL     1      17.127 -22.724   4.849  1.00  0.00    +0.014 A 
ATOM     20  C   UNL     1      17.635 -21.307   2.947  1.00  0.00    +0.014 A 
ATOM     21  C   UNL     1      18.304 -23.445   4.618  1.00  0.00    +0.014 A 
ATOM     22  C   UNL     1      18.811 -22.027   2.718  1.00  0.00    +0.014 A 
ATOM     23  C   UNL     1      19.151 -23.085   3.566  1.00  0.00    +0.040 A 
BRANCH  23  24
ATOM     24  C   UNL     1      20.381 -23.877   3.337  1.00  0.00    +0.253 C 
ATOM     25  O   UNL     1      21.300 -23.743   4.141  1.00  0.00    -0.269 OA
ATOM     26  N   UNL     1      20.440 -24.733   2.238  1.00  0.00    -0.339 N 
ATOM     27  C   UNL     1      21.617 -25.589   2.110  1.00  0.00    +0.120 C 
ATOM     28  C   UNL     1      19.526 -24.670   1.092  1.00  0.00    +0.120 C 
ATOM     29  C   UNL     1      21.345 -26.791   1.215  1.00  0.00    +0.022 C 
ATOM     30  C   UNL     1      20.236 -24.996  -0.218  1.00  0.00    +0.022 C 
ATOM     31  C   UNL     1      20.898 -26.374  -0.187  1.00  0.00    +0.004 C 
ENDBRANCH  23  24
ENDBRANCH  15  18
ENDBRANCH   5  14
TORSDOF 5
ENDMDL
