MODEL 1
REMARK VINA RESULT:    -8.253      0.000      0.000
REMARK INTER + INTRA:         -12.475
REMARK INTER:                 -10.907
REMARK INTRA:                  -1.568
REMARK UNBOUND:                -1.568
REMARK SMILES CC1(c2ccc(C(=O)O)cc2)NC(=O)N(CC(=O)c2ccc(F)cc2F)C1=O
REMARK SMILES IDX 1 1 2 2 12 3 13 4 14 5 15 6 27 7 28 8 3 10 4 11 11 12 5 13
REMARK SMILES IDX 10 14 6 15 7 16 8 17 9 18 16 20 17 21 18 22 19 23 20 24
REMARK SMILES IDX 25 25 21 26 24 27 22 28 26 29 23 30
REMARK H PARENT 12 9 9 19
ROOT
ATOM      1  C   UNL     1      18.188 -23.849   3.980  1.00  0.00    +0.051 C 
ATOM      2  C   UNL     1      17.495 -23.068   2.857  1.00  0.00    +0.144 C 
ATOM      3  N   UNL     1      16.712 -23.987   2.054  1.00  0.00    -0.319 N 
ATOM      4  C   UNL     1      17.204 -24.127   0.780  1.00  0.00    +0.325 C 
ATOM      5  O   UNL     1      16.675 -24.799  -0.089  1.00  0.00    -0.248 OA
ATOM      6  N   UNL     1      18.340 -23.389   0.668  1.00  0.00    -0.254 N 
ATOM      7  C   UNL     1      18.580 -22.689   1.819  1.00  0.00    +0.261 C 
ATOM      8  O   UNL     1      19.511 -21.914   2.003  1.00  0.00    -0.271 OA
ATOM      9  H   UNL     1      15.806 -24.359   2.309  1.00  0.00    +0.166 HD
ENDROOT
BRANCH   2  10
ATOM     10  C   UNL     1      16.642 -21.877   3.287  1.00  0.00    -0.013 A 
ATOM     11  C   UNL     1      15.725 -22.008   4.349  1.00  0.00    +0.007 A 
ATOM     12  C   UNL     1      16.747 -20.617   2.672  1.00  0.00    +0.007 A 
ATOM     13  C   UNL     1      14.938 -20.932   4.773  1.00  0.00    +0.016 A 
ATOM     14  C   UNL     1      15.961 -19.537   3.094  1.00  0.00    +0.016 A 
ATOM     15  C   UNL     1      15.053 -19.691   4.145  1.00  0.00    +0.059 A 
BRANCH  15  16
ATOM     16  C   UNL     1      14.243 -18.519   4.555  1.00  0.00    +0.335 C 
ATOM     17  O   UNL     1      13.620 -18.413   5.596  1.00  0.00    -0.246 OA
BRANCH  16  18
ATOM     18  O   UNL     1      14.247 -17.533   3.641  1.00  0.00    -0.478 OA
ATOM     19  H   UNL     1      13.643 -17.859   2.941  1.00  0.00    +0.297 HD
ENDBRANCH  16  18
ENDBRANCH  15  16
ENDBRANCH   2  10
BRANCH   6  20
ATOM     20  C   UNL     1      19.089 -23.236  -0.559  1.00  0.00    +0.211 C 
BRANCH  20  21
ATOM     21  C   UNL     1      18.222 -22.526  -1.594  1.00  0.00    +0.185 C 
ATOM     22  O   UNL     1      18.109 -22.925  -2.755  1.00  0.00    -0.292 OA
BRANCH  21  23
ATOM     23  C   UNL     1      17.473 -21.299  -1.194  1.00  0.00    +0.055 A 
ATOM     24  C   UNL     1      18.205 -20.132  -0.911  1.00  0.00    +0.018 A 
ATOM     25  C   UNL     1      16.080 -21.259  -1.096  1.00  0.00    +0.136 A 
ATOM     26  C   UNL     1      17.545 -18.960  -0.533  1.00  0.00    +0.040 A 
ATOM     27  C   UNL     1      15.418 -20.093  -0.720  1.00  0.00    +0.079 A 
ATOM     28  C   UNL     1      16.158 -18.953  -0.440  1.00  0.00    +0.126 A 
ATOM     29  F   UNL     1      15.333 -22.337  -1.368  1.00  0.00    -0.206 F 
ATOM     30  F   UNL     1      15.527 -17.829  -0.079  1.00  0.00    -0.207 F 
ENDBRANCH  21  23
ENDBRANCH  20  21
ENDBRANCH   6  20
TORSDOF 6
ENDMDL
MODEL 2
REMARK VINA RESULT:    -8.035      2.015      2.626
REMARK INTER + INTRA:         -12.186
REMARK INTER:                 -10.717
REMARK INTRA:                  -1.469
REMARK UNBOUND:                -1.568
REMARK SMILES CC1(c2ccc(C(=O)O)cc2)NC(=O)N(CC(=O)c2ccc(F)cc2F)C1=O
REMARK SMILES IDX 1 1 2 2 12 3 13 4 14 5 15 6 27 7 28 8 3 10 4 11 11 12 5 13
REMARK SMILES IDX 10 14 6 15 7 16 8 17 9 18 16 20 17 21 18 22 19 23 20 24
REMARK SMILES IDX 25 25 21 26 24 27 22 28 26 29 23 30
REMARK H PARENT 12 9 9 19
ROOT
ATOM      1  C   UNL     1      17.608 -25.503   1.882  1.00  0.00    +0.051 C 
ATOM      2  C   UNL     1      17.210 -24.041   1.644  1.00  0.00    +0.144 C 
ATOM      3  N   UNL     1      16.016 -24.004   0.822  1.00  0.00    -0.319 N 
ATOM      4  C   UNL     1      16.249 -23.472  -0.423  1.00  0.00    +0.325 C 
ATOM      5  O   UNL     1      15.383 -23.284  -1.260  1.00  0.00    -0.248 OA
ATOM      6  N   UNL     1      17.573 -23.188  -0.535  1.00  0.00    -0.254 N 
ATOM      7  C   UNL     1      18.227 -23.442   0.640  1.00  0.00    +0.261 C 
ATOM      8  O   UNL     1      19.418 -23.252   0.851  1.00  0.00    -0.271 OA
ATOM      9  H   UNL     1      15.075 -24.171   1.152  1.00  0.00    +0.166 HD
ENDROOT
BRANCH   2  10
ATOM     10  C   UNL     1      17.027 -23.178   2.890  1.00  0.00    -0.013 A 
ATOM     11  C   UNL     1      15.838 -22.444   3.075  1.00  0.00    +0.007 A 
ATOM     12  C   UNL     1      18.004 -23.096   3.897  1.00  0.00    +0.007 A 
ATOM     13  C   UNL     1      15.636 -21.652   4.211  1.00  0.00    +0.016 A 
ATOM     14  C   UNL     1      17.805 -22.304   5.036  1.00  0.00    +0.016 A 
ATOM     15  C   UNL     1      16.622 -21.580   5.196  1.00  0.00    +0.059 A 
BRANCH  15  16
ATOM     16  C   UNL     1      16.458 -20.757   6.419  1.00  0.00    +0.335 C 
ATOM     17  O   UNL     1      16.393 -19.541   6.456  1.00  0.00    -0.246 OA
BRANCH  16  18
ATOM     18  O   UNL     1      16.388 -21.494   7.541  1.00  0.00    -0.478 OA
ATOM     19  H   UNL     1      15.619 -22.082   7.389  1.00  0.00    +0.297 HD
ENDBRANCH  16  18
ENDBRANCH  15  16
ENDBRANCH   2  10
BRANCH   6  20
ATOM     20  C   UNL     1      18.169 -22.543  -1.683  1.00  0.00    +0.211 C 
BRANCH  20  21
ATOM     21  C   UNL     1      18.508 -21.098  -1.331  1.00  0.00    +0.185 C 
ATOM     22  O   UNL     1      19.530 -20.537  -1.733  1.00  0.00    -0.292 OA
BRANCH  21  23
ATOM     23  C   UNL     1      17.569 -20.322  -0.469  1.00  0.00    +0.055 A 
ATOM     24  C   UNL     1      16.376 -19.846  -1.041  1.00  0.00    +0.018 A 
ATOM     25  C   UNL     1      17.822 -20.054   0.879  1.00  0.00    +0.136 A 
ATOM     26  C   UNL     1      15.467 -19.116  -0.271  1.00  0.00    +0.040 A 
ATOM     27  C   UNL     1      16.919 -19.326   1.650  1.00  0.00    +0.079 A 
ATOM     28  C   UNL     1      15.748 -18.862   1.066  1.00  0.00    +0.126 A 
ATOM     29  F   UNL     1      18.936 -20.495   1.478  1.00  0.00    -0.206 F 
ATOM     30  F   UNL     1      14.877 -18.163   1.802  1.00  0.00    -0.207 F 
ENDBRANCH  21  23
ENDBRANCH  20  21
ENDBRANCH   6  20
TORSDOF 6
ENDMDL
MODEL 3
REMARK VINA RESULT:    -8.023      2.962      6.297
REMARK INTER + INTRA:         -12.170
REMARK INTER:                 -11.447
REMARK INTRA:                  -0.723
REMARK UNBOUND:                -1.568
REMARK SMILES CC1(c2ccc(C(=O)O)cc2)NC(=O)N(CC(=O)c2ccc(F)cc2F)C1=O
REMARK SMILES IDX 1 1 2 2 12 3 13 4 14 5 15 6 27 7 28 8 3 10 4 11 11 12 5 13
REMARK SMILES IDX 10 14 6 15 7 16 8 17 9 18 16 20 17 21 18 22 19 23 20 24
REMARK SMILES IDX 25 25 21 26 24 27 22 28 26 29 23 30
REMARK H PARENT 12 9 9 19
ROOT
ATOM      1  C   UNL     1      19.375 -21.630  -1.431  1.00  0.00    +0.051 C 
ATOM      2  C   UNL     1      18.210 -21.933  -0.480  1.00  0.00    +0.144 C 
ATOM      3  N   UNL     1      16.990 -21.383  -1.037  1.00  0.00    -0.319 N 
ATOM      4  C   UNL     1      16.489 -20.345  -0.289  1.00  0.00    +0.325 C 
ATOM      5  O   UNL     1      15.441 -19.771  -0.530  1.00  0.00    -0.248 OA
ATOM      6  N   UNL     1      17.340 -20.100   0.742  1.00  0.00    -0.254 N 
ATOM      7  C   UNL     1      18.366 -21.006   0.752  1.00  0.00    +0.261 C 
ATOM      8  O   UNL     1      19.266 -21.057   1.580  1.00  0.00    -0.271 OA
ATOM      9  H   UNL     1      16.447 -21.801  -1.781  1.00  0.00    +0.166 HD
ENDROOT
BRANCH   2  10
ATOM     10  C   UNL     1      18.009 -23.397  -0.100  1.00  0.00    -0.013 A 
ATOM     11  C   UNL     1      16.716 -23.957  -0.092  1.00  0.00    +0.007 A 
ATOM     12  C   UNL     1      19.084 -24.242   0.231  1.00  0.00    +0.007 A 
ATOM     13  C   UNL     1      16.501 -25.299   0.242  1.00  0.00    +0.016 A 
ATOM     14  C   UNL     1      18.872 -25.586   0.566  1.00  0.00    +0.016 A 
ATOM     15  C   UNL     1      17.581 -26.118   0.573  1.00  0.00    +0.059 A 
BRANCH  15  16
ATOM     16  C   UNL     1      17.408 -27.546   0.934  1.00  0.00    +0.335 C 
ATOM     17  O   UNL     1      18.304 -28.324   1.209  1.00  0.00    -0.246 OA
BRANCH  16  18
ATOM     18  O   UNL     1      16.122 -27.936   0.930  1.00  0.00    -0.478 OA
ATOM     19  H   UNL     1      16.065 -28.553   0.170  1.00  0.00    +0.297 HD
ENDBRANCH  16  18
ENDBRANCH  15  16
ENDBRANCH   2  10
BRANCH   6  20
ATOM     20  C   UNL     1      17.095 -19.125   1.781  1.00  0.00    +0.211 C 
BRANCH  20  21
ATOM     21  C   UNL     1      16.104 -19.701   2.789  1.00  0.00    +0.185 C 
ATOM     22  O   UNL     1      16.158 -20.867   3.184  1.00  0.00    -0.292 OA
BRANCH  21  23
ATOM     23  C   UNL     1      15.024 -18.823   3.326  1.00  0.00    +0.055 A 
ATOM     24  C   UNL     1      14.501 -17.820   2.492  1.00  0.00    +0.018 A 
ATOM     25  C   UNL     1      14.508 -18.959   4.618  1.00  0.00    +0.136 A 
ATOM     26  C   UNL     1      13.488 -16.975   2.953  1.00  0.00    +0.040 A 
ATOM     27  C   UNL     1      13.499 -18.119   5.082  1.00  0.00    +0.079 A 
ATOM     28  C   UNL     1      12.998 -17.133   4.244  1.00  0.00    +0.126 A 
ATOM     29  F   UNL     1      14.959 -19.906   5.450  1.00  0.00    -0.206 F 
ATOM     30  F   UNL     1      12.028 -16.323   4.685  1.00  0.00    -0.207 F 
ENDBRANCH  21  23
ENDBRANCH  20  21
ENDBRANCH   6  20
TORSDOF 6
ENDMDL
MODEL 4
REMARK VINA RESULT:    -7.948      3.224      4.614
REMARK INTER + INTRA:         -12.071
REMARK INTER:                 -10.851
REMARK INTRA:                  -1.220
REMARK UNBOUND:                -1.568
REMARK SMILES CC1(c2ccc(C(=O)O)cc2)NC(=O)N(CC(=O)c2ccc(F)cc2F)C1=O
REMARK SMILES IDX 1 1 2 2 12 3 13 4 14 5 15 6 27 7 28 8 3 10 4 11 11 12 5 13
REMARK SMILES IDX 10 14 6 15 7 16 8 17 9 18 16 20 17 21 18 22 19 23 20 24
REMARK SMILES IDX 25 25 21 26 24 27 22 28 26 29 23 30
REMARK H PARENT 12 9 9 19
ROOT
ATOM      1  C   UNL     1      17.503 -21.917   4.582  1.00  0.00    +0.051 C 
ATOM      2  C   UNL     1      17.005 -21.641   3.158  1.00  0.00    +0.144 C 
ATOM      3  N   UNL     1      16.279 -22.800   2.677  1.00  0.00    -0.319 N 
ATOM      4  C   UNL     1      16.921 -23.433   1.641  1.00  0.00    +0.325 C 
ATOM      5  O   UNL     1      16.470 -24.391   1.038  1.00  0.00    -0.248 OA
ATOM      6  N   UNL     1      18.103 -22.801   1.410  1.00  0.00    -0.254 N 
ATOM      7  C   UNL     1      18.234 -21.704   2.218  1.00  0.00    +0.261 C 
ATOM      8  O   UNL     1      19.176 -20.922   2.213  1.00  0.00    -0.271 OA
ATOM      9  H   UNL     1      15.328 -23.038   2.927  1.00  0.00    +0.166 HD
ENDROOT
BRANCH   2  10
ATOM     10  C   UNL     1      16.175 -20.374   2.965  1.00  0.00    -0.013 A 
ATOM     11  C   UNL     1      15.372 -19.886   4.015  1.00  0.00    +0.007 A 
ATOM     12  C   UNL     1      16.191 -19.641   1.765  1.00  0.00    +0.007 A 
ATOM     13  C   UNL     1      14.607 -18.723   3.872  1.00  0.00    +0.016 A 
ATOM     14  C   UNL     1      15.427 -18.475   1.619  1.00  0.00    +0.016 A 
ATOM     15  C   UNL     1      14.633 -18.013   2.671  1.00  0.00    +0.059 A 
BRANCH  15  16
ATOM     16  C   UNL     1      13.843 -16.774   2.467  1.00  0.00    +0.335 C 
ATOM     17  O   UNL     1      12.672 -16.619   2.763  1.00  0.00    -0.246 OA
BRANCH  16  18
ATOM     18  O   UNL     1      14.556 -15.786   1.899  1.00  0.00    -0.478 OA
ATOM     19  H   UNL     1      15.058 -16.237   1.188  1.00  0.00    +0.297 HD
ENDBRANCH  16  18
ENDBRANCH  15  16
ENDBRANCH   2  10
BRANCH   6  20
ATOM     20  C   UNL     1      19.010 -23.147   0.339  1.00  0.00    +0.211 C 
BRANCH  20  21
ATOM     21  C   UNL     1      19.911 -24.293   0.790  1.00  0.00    +0.185 C 
ATOM     22  O   UNL     1      19.882 -25.408   0.265  1.00  0.00    -0.292 OA
BRANCH  21  23
ATOM     23  C   UNL     1      20.872 -24.063   1.908  1.00  0.00    +0.055 A 
ATOM     24  C   UNL     1      22.129 -23.511   1.606  1.00  0.00    +0.018 A 
ATOM     25  C   UNL     1      20.574 -24.368   3.239  1.00  0.00    +0.136 A 
ATOM     26  C   UNL     1      23.060 -23.278   2.622  1.00  0.00    +0.040 A 
ATOM     27  C   UNL     1      21.498 -24.137   4.255  1.00  0.00    +0.079 A 
ATOM     28  C   UNL     1      22.735 -23.595   3.936  1.00  0.00    +0.126 A 
ATOM     29  F   UNL     1      19.386 -24.882   3.585  1.00  0.00    -0.206 F 
ATOM     30  F   UNL     1      23.628 -23.372   4.908  1.00  0.00    -0.207 F 
ENDBRANCH  21  23
ENDBRANCH  20  21
ENDBRANCH   6  20
TORSDOF 6
ENDMDL
MODEL 5
REMARK VINA RESULT:    -7.903      1.536      2.345
REMARK INTER + INTRA:         -12.012
REMARK INTER:                 -11.008
REMARK INTRA:                  -1.004
REMARK UNBOUND:                -1.568
REMARK SMILES CC1(c2ccc(C(=O)O)cc2)NC(=O)N(CC(=O)c2ccc(F)cc2F)C1=O
REMARK SMILES IDX 1 1 2 2 12 3 13 4 14 5 15 6 27 7 28 8 3 10 4 11 11 12 5 13
REMARK SMILES IDX 10 14 6 15 7 16 8 17 9 18 16 20 17 21 18 22 19 23 20 24
REMARK SMILES IDX 25 25 21 26 24 27 22 28 26 29 23 30
REMARK H PARENT 12 9 9 19
ROOT
ATOM      1  C   UNL     1      18.137 -21.940   4.854  1.00  0.00    +0.051 C 
ATOM      2  C   UNL     1      17.468 -21.771   3.484  1.00  0.00    +0.144 C 
ATOM      3  N   UNL     1      16.766 -22.993   3.146  1.00  0.00    -0.319 N 
ATOM      4  C   UNL     1      17.326 -23.645   2.075  1.00  0.00    +0.325 C 
ATOM      5  O   UNL     1      16.871 -24.659   1.574  1.00  0.00    -0.248 OA
ATOM      6  N   UNL     1      18.434 -22.963   1.681  1.00  0.00    -0.254 N 
ATOM      7  C   UNL     1      18.586 -21.817   2.414  1.00  0.00    +0.261 C 
ATOM      8  O   UNL     1      19.473 -20.985   2.263  1.00  0.00    -0.271 OA
ATOM      9  H   UNL     1      15.865 -23.270   3.514  1.00  0.00    +0.166 HD
ENDROOT
BRANCH   2  10
ATOM     10  C   UNL     1      16.545 -20.565   3.326  1.00  0.00    -0.013 A 
ATOM     11  C   UNL     1      16.624 -19.758   2.173  1.00  0.00    +0.007 A 
ATOM     12  C   UNL     1      15.581 -20.225   4.291  1.00  0.00    +0.007 A 
ATOM     13  C   UNL     1      15.785 -18.652   1.995  1.00  0.00    +0.016 A 
ATOM     14  C   UNL     1      14.739 -19.119   4.116  1.00  0.00    +0.016 A 
ATOM     15  C   UNL     1      14.839 -18.329   2.968  1.00  0.00    +0.059 A 
BRANCH  15  16
ATOM     16  C   UNL     1      13.925 -17.169   2.828  1.00  0.00    +0.335 C 
ATOM     17  O   UNL     1      12.883 -17.006   3.437  1.00  0.00    -0.246 OA
BRANCH  16  18
ATOM     18  O   UNL     1      14.357 -16.267   1.929  1.00  0.00    -0.478 OA
ATOM     19  H   UNL     1      13.559 -15.735   1.729  1.00  0.00    +0.297 HD
ENDBRANCH  16  18
ENDBRANCH  15  16
ENDBRANCH   2  10
BRANCH   6  20
ATOM     20  C   UNL     1      19.236 -23.315   0.530  1.00  0.00    +0.211 C 
BRANCH  20  21
ATOM     21  C   UNL     1      19.025 -22.278  -0.569  1.00  0.00    +0.185 C 
ATOM     22  O   UNL     1      19.961 -21.720  -1.146  1.00  0.00    -0.292 OA
BRANCH  21  23
ATOM     23  C   UNL     1      17.634 -21.919  -0.971  1.00  0.00    +0.055 A 
ATOM     24  C   UNL     1      16.746 -22.958  -1.303  1.00  0.00    +0.018 A 
ATOM     25  C   UNL     1      17.175 -20.600  -1.025  1.00  0.00    +0.136 A 
ATOM     26  C   UNL     1      15.434 -22.669  -1.684  1.00  0.00    +0.040 A 
ATOM     27  C   UNL     1      15.868 -20.308  -1.404  1.00  0.00    +0.079 A 
ATOM     28  C   UNL     1      15.008 -21.347  -1.732  1.00  0.00    +0.126 A 
ATOM     29  F   UNL     1      17.973 -19.574  -0.705  1.00  0.00    -0.206 F 
ATOM     30  F   UNL     1      13.750 -21.072  -2.098  1.00  0.00    -0.207 F 
ENDBRANCH  21  23
ENDBRANCH  20  21
ENDBRANCH   6  20
TORSDOF 6
ENDMDL
MODEL 6
REMARK VINA RESULT:    -7.837      2.871      6.888
REMARK INTER + INTRA:         -11.925
REMARK INTER:                 -11.498
REMARK INTRA:                  -0.427
REMARK UNBOUND:                -1.568
REMARK SMILES CC1(c2ccc(C(=O)O)cc2)NC(=O)N(CC(=O)c2ccc(F)cc2F)C1=O
REMARK SMILES IDX 1 1 2 2 12 3 13 4 14 5 15 6 27 7 28 8 3 10 4 11 11 12 5 13
REMARK SMILES IDX 10 14 6 15 7 16 8 17 9 18 16 20 17 21 18 22 19 23 20 24
REMARK SMILES IDX 25 25 21 26 24 27 22 28 26 29 23 30
REMARK H PARENT 12 9 9 19
ROOT
ATOM      1  C   UNL     1      16.356 -23.436  -0.055  1.00  0.00    +0.051 C 
ATOM      2  C   UNL     1      17.499 -22.456   0.239  1.00  0.00    +0.144 C 
ATOM      3  N   UNL     1      18.176 -22.869   1.452  1.00  0.00    -0.319 N 
ATOM      4  C   UNL     1      18.005 -21.976   2.482  1.00  0.00    +0.325 C 
ATOM      5  O   UNL     1      18.532 -22.083   3.576  1.00  0.00    -0.248 OA
ATOM      6  N   UNL     1      17.184 -20.978   2.062  1.00  0.00    -0.254 N 
ATOM      7  C   UNL     1      16.861 -21.137   0.741  1.00  0.00    +0.261 C 
ATOM      8  O   UNL     1      16.166 -20.378   0.079  1.00  0.00    -0.271 OA
ATOM      9  H   UNL     1      18.849 -23.622   1.519  1.00  0.00    +0.166 HD
ENDROOT
BRANCH   2  10
ATOM     10  C   UNL     1      18.508 -22.237  -0.886  1.00  0.00    -0.013 A 
ATOM     11  C   UNL     1      19.870 -22.537  -0.684  1.00  0.00    +0.007 A 
ATOM     12  C   UNL     1      18.129 -21.759  -2.152  1.00  0.00    +0.007 A 
ATOM     13  C   UNL     1      20.817 -22.357  -1.699  1.00  0.00    +0.016 A 
ATOM     14  C   UNL     1      19.075 -21.577  -3.171  1.00  0.00    +0.016 A 
ATOM     15  C   UNL     1      20.421 -21.875  -2.947  1.00  0.00    +0.059 A 
BRANCH  15  16
ATOM     16  C   UNL     1      21.383 -21.666  -4.056  1.00  0.00    +0.335 C 
ATOM     17  O   UNL     1      21.515 -22.386  -5.030  1.00  0.00    -0.246 OA
BRANCH  16  18
ATOM     18  O   UNL     1      22.141 -20.568  -3.894  1.00  0.00    -0.478 OA
ATOM     19  H   UNL     1      21.969 -20.042  -4.702  1.00  0.00    +0.297 HD
ENDBRANCH  16  18
ENDBRANCH  15  16
ENDBRANCH   2  10
BRANCH   6  20
ATOM     20  C   UNL     1      16.844 -19.820   2.857  1.00  0.00    +0.211 C 
BRANCH  20  21
ATOM     21  C   UNL     1      15.639 -20.146   3.734  1.00  0.00    +0.185 C 
ATOM     22  O   UNL     1      15.469 -21.255   4.246  1.00  0.00    -0.292 OA
BRANCH  21  23
ATOM     23  C   UNL     1      14.621 -19.086   3.992  1.00  0.00    +0.055 A 
ATOM     24  C   UNL     1      14.438 -18.085   3.022  1.00  0.00    +0.018 A 
ATOM     25  C   UNL     1      13.841 -19.049   5.151  1.00  0.00    +0.136 A 
ATOM     26  C   UNL     1      13.496 -17.074   3.221  1.00  0.00    +0.040 A 
ATOM     27  C   UNL     1      12.901 -18.042   5.354  1.00  0.00    +0.079 A 
ATOM     28  C   UNL     1      12.737 -17.061   4.386  1.00  0.00    +0.126 A 
ATOM     29  F   UNL     1      13.963 -19.985   6.101  1.00  0.00    -0.206 F 
ATOM     30  F   UNL     1      11.835 -16.091   4.575  1.00  0.00    -0.207 F 
ENDBRANCH  21  23
ENDBRANCH  20  21
ENDBRANCH   6  20
TORSDOF 6
ENDMDL
MODEL 7
REMARK VINA RESULT:    -7.826      2.683      6.142
REMARK INTER + INTRA:         -11.910
REMARK INTER:                 -11.044
REMARK INTRA:                  -0.866
REMARK UNBOUND:                -1.568
REMARK SMILES CC1(c2ccc(C(=O)O)cc2)NC(=O)N(CC(=O)c2ccc(F)cc2F)C1=O
REMARK SMILES IDX 1 1 2 2 12 3 13 4 14 5 15 6 27 7 28 8 3 10 4 11 11 12 5 13
REMARK SMILES IDX 10 14 6 15 7 16 8 17 9 18 16 20 17 21 18 22 19 23 20 24
REMARK SMILES IDX 25 25 21 26 24 27 22 28 26 29 23 30
REMARK H PARENT 12 9 9 19
ROOT
ATOM      1  C   UNL     1      17.215 -24.035   2.705  1.00  0.00    +0.051 C 
ATOM      2  C   UNL     1      17.340 -22.530   2.975  1.00  0.00    +0.144 C 
ATOM      3  N   UNL     1      18.439 -22.303   3.892  1.00  0.00    -0.319 N 
ATOM      4  C   UNL     1      18.019 -21.835   5.114  1.00  0.00    +0.325 C 
ATOM      5  O   UNL     1      18.769 -21.515   6.020  1.00  0.00    -0.248 OA
ATOM      6  N   UNL     1      16.660 -21.780   5.116  1.00  0.00    -0.254 N 
ATOM      7  C   UNL     1      16.158 -22.125   3.890  1.00  0.00    +0.261 C 
ATOM      8  O   UNL     1      14.973 -22.135   3.582  1.00  0.00    -0.271 OA
ATOM      9  H   UNL     1      19.419 -22.305   3.642  1.00  0.00    +0.166 HD
ENDROOT
BRANCH   2  10
ATOM     10  C   UNL     1      17.475 -21.632   1.748  1.00  0.00    -0.013 A 
ATOM     11  C   UNL     1      16.634 -20.511   1.594  1.00  0.00    +0.007 A 
ATOM     12  C   UNL     1      18.438 -21.863   0.750  1.00  0.00    +0.007 A 
ATOM     13  C   UNL     1      16.741 -19.663   0.486  1.00  0.00    +0.016 A 
ATOM     14  C   UNL     1      18.548 -21.016  -0.361  1.00  0.00    +0.016 A 
ATOM     15  C   UNL     1      17.699 -19.914  -0.497  1.00  0.00    +0.059 A 
BRANCH  15  16
ATOM     16  C   UNL     1      17.855 -19.047  -1.690  1.00  0.00    +0.335 C 
ATOM     17  O   UNL     1      18.021 -17.840  -1.676  1.00  0.00    -0.246 OA
BRANCH  16  18
ATOM     18  O   UNL     1      17.792 -19.730  -2.846  1.00  0.00    -0.478 OA
ATOM     19  H   UNL     1      18.380 -20.500  -2.697  1.00  0.00    +0.297 HD
ENDBRANCH  16  18
ENDBRANCH  15  16
ENDBRANCH   2  10
BRANCH   6  20
ATOM     20  C   UNL     1      15.872 -21.260   6.211  1.00  0.00    +0.211 C 
BRANCH  20  21
ATOM     21  C   UNL     1      15.892 -19.735   6.167  1.00  0.00    +0.185 C 
ATOM     22  O   UNL     1      16.856 -19.070   6.552  1.00  0.00    -0.292 OA
BRANCH  21  23
ATOM     23  C   UNL     1      14.702 -19.010   5.635  1.00  0.00    +0.055 A 
ATOM     24  C   UNL     1      13.600 -18.818   6.487  1.00  0.00    +0.018 A 
ATOM     25  C   UNL     1      14.638 -18.509   4.332  1.00  0.00    +0.136 A 
ATOM     26  C   UNL     1      12.465 -18.144   6.032  1.00  0.00    +0.040 A 
ATOM     27  C   UNL     1      13.509 -17.836   3.874  1.00  0.00    +0.079 A 
ATOM     28  C   UNL     1      12.430 -17.660   4.729  1.00  0.00    +0.126 A 
ATOM     29  F   UNL     1      15.664 -18.650   3.483  1.00  0.00    -0.206 F 
ATOM     30  F   UNL     1      11.341 -17.014   4.294  1.00  0.00    -0.207 F 
ENDBRANCH  21  23
ENDBRANCH  20  21
ENDBRANCH   6  20
TORSDOF 6
ENDMDL
MODEL 8
REMARK VINA RESULT:    -7.631      2.942      3.761
REMARK INTER + INTRA:         -11.653
REMARK INTER:                 -10.830
REMARK INTRA:                  -0.822
REMARK UNBOUND:                -1.568
REMARK SMILES CC1(c2ccc(C(=O)O)cc2)NC(=O)N(CC(=O)c2ccc(F)cc2F)C1=O
REMARK SMILES IDX 1 1 2 2 12 3 13 4 14 5 15 6 27 7 28 8 3 10 4 11 11 12 5 13
REMARK SMILES IDX 10 14 6 15 7 16 8 17 9 18 16 20 17 21 18 22 19 23 20 24
REMARK SMILES IDX 25 25 21 26 24 27 22 28 26 29 23 30
REMARK H PARENT 12 9 9 19
ROOT
ATOM      1  C   UNL     1      18.274 -23.558   3.520  1.00  0.00    +0.051 C 
ATOM      2  C   UNL     1      17.465 -22.454   2.829  1.00  0.00    +0.144 C 
ATOM      3  N   UNL     1      16.422 -23.063   2.028  1.00  0.00    -0.319 N 
ATOM      4  C   UNL     1      16.614 -22.877   0.680  1.00  0.00    +0.325 C 
ATOM      5  O   UNL     1      15.834 -23.247  -0.181  1.00  0.00    -0.248 OA
ATOM      6  N   UNL     1      17.785 -22.213   0.495  1.00  0.00    -0.254 N 
ATOM      7  C   UNL     1      18.348 -21.874   1.696  1.00  0.00    +0.261 C 
ATOM      8  O   UNL     1      19.386 -21.243   1.845  1.00  0.00    -0.271 OA
ATOM      9  H   UNL     1      15.550 -23.431   2.386  1.00  0.00    +0.166 HD
ENDROOT
BRANCH   2  10
ATOM     10  C   UNL     1      16.879 -21.375   3.736  1.00  0.00    -0.013 A 
ATOM     11  C   UNL     1      17.033 -21.465   5.134  1.00  0.00    +0.007 A 
ATOM     12  C   UNL     1      16.196 -20.256   3.229  1.00  0.00    +0.007 A 
ATOM     13  C   UNL     1      16.516 -20.487   5.991  1.00  0.00    +0.016 A 
ATOM     14  C   UNL     1      15.678 -19.274   4.084  1.00  0.00    +0.016 A 
ATOM     15  C   UNL     1      15.836 -19.387   5.467  1.00  0.00    +0.059 A 
BRANCH  15  16
ATOM     16  C   UNL     1      15.270 -18.322   6.331  1.00  0.00    +0.335 C 
ATOM     17  O   UNL     1      14.085 -18.116   6.523  1.00  0.00    -0.246 OA
BRANCH  16  18
ATOM     18  O   UNL     1      16.214 -17.561   6.910  1.00  0.00    -0.478 OA
ATOM     19  H   UNL     1      16.193 -16.727   6.395  1.00  0.00    +0.297 HD
ENDBRANCH  16  18
ENDBRANCH  15  16
ENDBRANCH   2  10
BRANCH   6  20
ATOM     20  C   UNL     1      18.273 -21.776  -0.794  1.00  0.00    +0.211 C 
BRANCH  20  21
ATOM     21  C   UNL     1      19.310 -22.772  -1.305  1.00  0.00    +0.185 C 
ATOM     22  O   UNL     1      19.443 -23.900  -0.825  1.00  0.00    -0.292 OA
BRANCH  21  23
ATOM     23  C   UNL     1      20.202 -22.376  -2.434  1.00  0.00    +0.055 A 
ATOM     24  C   UNL     1      19.610 -21.992  -3.650  1.00  0.00    +0.018 A 
ATOM     25  C   UNL     1      21.595 -22.365  -2.332  1.00  0.00    +0.136 A 
ATOM     26  C   UNL     1      20.406 -21.612  -4.733  1.00  0.00    +0.040 A 
ATOM     27  C   UNL     1      22.393 -21.987  -3.409  1.00  0.00    +0.079 A 
ATOM     28  C   UNL     1      21.790 -21.615  -4.602  1.00  0.00    +0.126 A 
ATOM     29  F   UNL     1      22.211 -22.707  -1.193  1.00  0.00    -0.206 F 
ATOM     30  F   UNL     1      22.551 -21.251  -5.641  1.00  0.00    -0.207 F 
ENDBRANCH  21  23
ENDBRANCH  20  21
ENDBRANCH   6  20
TORSDOF 6
ENDMDL
MODEL 9
REMARK VINA RESULT:    -7.546      2.306      4.463
REMARK INTER + INTRA:         -11.541
REMARK INTER:                 -10.155
REMARK INTRA:                  -1.386
REMARK UNBOUND:                -1.568
REMARK SMILES CC1(c2ccc(C(=O)O)cc2)NC(=O)N(CC(=O)c2ccc(F)cc2F)C1=O
REMARK SMILES IDX 1 1 2 2 12 3 13 4 14 5 15 6 27 7 28 8 3 10 4 11 11 12 5 13
REMARK SMILES IDX 10 14 6 15 7 16 8 17 9 18 16 20 17 21 18 22 19 23 20 24
REMARK SMILES IDX 25 25 21 26 24 27 22 28 26 29 23 30
REMARK H PARENT 12 9 9 19
ROOT
ATOM      1  C   UNL     1      16.969 -18.624  -1.108  1.00  0.00    +0.051 C 
ATOM      2  C   UNL     1      17.010 -19.701  -0.016  1.00  0.00    +0.144 C 
ATOM      3  N   UNL     1      18.390 -20.064   0.239  1.00  0.00    -0.319 N 
ATOM      4  C   UNL     1      18.676 -21.352  -0.143  1.00  0.00    +0.325 C 
ATOM      5  O   UNL     1      19.754 -21.895   0.031  1.00  0.00    -0.248 OA
ATOM      6  N   UNL     1      17.568 -21.894  -0.713  1.00  0.00    -0.254 N 
ATOM      7  C   UNL     1      16.513 -21.023  -0.651  1.00  0.00    +0.261 C 
ATOM      8  O   UNL     1      15.378 -21.246  -1.053  1.00  0.00    -0.271 OA
ATOM      9  H   UNL     1      19.043 -19.525   0.793  1.00  0.00    +0.166 HD
ENDROOT
BRANCH   2  10
ATOM     10  C   UNL     1      16.296 -19.366   1.292  1.00  0.00    -0.013 A 
ATOM     11  C   UNL     1      15.261 -18.410   1.309  1.00  0.00    +0.007 A 
ATOM     12  C   UNL     1      16.617 -19.998   2.506  1.00  0.00    +0.007 A 
ATOM     13  C   UNL     1      14.581 -18.089   2.490  1.00  0.00    +0.016 A 
ATOM     14  C   UNL     1      15.939 -19.679   3.690  1.00  0.00    +0.016 A 
ATOM     15  C   UNL     1      14.919 -18.724   3.686  1.00  0.00    +0.059 A 
BRANCH  15  16
ATOM     16  C   UNL     1      14.231 -18.421   4.964  1.00  0.00    +0.335 C 
ATOM     17  O   UNL     1      13.557 -19.202   5.612  1.00  0.00    -0.246 OA
BRANCH  16  18
ATOM     18  O   UNL     1      14.413 -17.153   5.370  1.00  0.00    -0.478 OA
ATOM     19  H   UNL     1      14.637 -16.672   4.547  1.00  0.00    +0.297 HD
ENDBRANCH  16  18
ENDBRANCH  15  16
ENDBRANCH   2  10
BRANCH   6  20
ATOM     20  C   UNL     1      17.476 -23.264  -1.164  1.00  0.00    +0.211 C 
BRANCH  20  21
ATOM     21  C   UNL     1      16.919 -24.130  -0.038  1.00  0.00    +0.185 C 
ATOM     22  O   UNL     1      15.860 -24.752  -0.138  1.00  0.00    -0.292 OA
BRANCH  21  23
ATOM     23  C   UNL     1      17.682 -24.237   1.240  1.00  0.00    +0.055 A 
ATOM     24  C   UNL     1      18.921 -24.901   1.224  1.00  0.00    +0.018 A 
ATOM     25  C   UNL     1      17.221 -23.702   2.446  1.00  0.00    +0.136 A 
ATOM     26  C   UNL     1      19.671 -25.024   2.397  1.00  0.00    +0.040 A 
ATOM     27  C   UNL     1      17.965 -23.823   3.617  1.00  0.00    +0.079 A 
ATOM     28  C   UNL     1      19.184 -24.485   3.582  1.00  0.00    +0.126 A 
ATOM     29  F   UNL     1      16.055 -23.048   2.515  1.00  0.00    -0.206 F 
ATOM     30  F   UNL     1      19.903 -24.604   4.705  1.00  0.00    -0.207 F 
ENDBRANCH  21  23
ENDBRANCH  20  21
ENDBRANCH   6  20
TORSDOF 6
ENDMDL
