MODEL 1
REMARK VINA RESULT:    -8.810      0.000      0.000
REMARK INTER + INTRA:         -13.328
REMARK INTER:                 -12.158
REMARK INTRA:                  -1.170
REMARK UNBOUND:                -1.170
REMARK SMILES CC1(c2ccc(S(N)(=O)=O)cc2)NC(=O)N(CC(=O)c2ccccc2C(F)(F)F)C1=O
REMARK SMILES IDX 1 1 2 2 13 3 14 4 15 5 16 6 30 7 31 8 3 10 4 11 12 12 5 13
REMARK SMILES IDX 11 14 6 15 7 16 9 17 10 18 8 19 17 22 18 23 19 24 20 25
REMARK SMILES IDX 21 26 25 27 22 28 24 29 23 30 26 31 27 32 28 33 29 34
REMARK H PARENT 13 9 8 20 8 21
ROOT
ATOM      1  C   UNL     1      17.498 -18.246  -0.696  1.00  0.00    +0.051 C 
ATOM      2  C   UNL     1      16.641 -19.384  -0.139  1.00  0.00    +0.144 C 
ATOM      3  N   UNL     1      15.601 -19.764  -1.078  1.00  0.00    -0.319 N 
ATOM      4  C   UNL     1      15.642 -21.103  -1.379  1.00  0.00    +0.325 C 
ATOM      5  O   UNL     1      14.775 -21.697  -1.998  1.00  0.00    -0.248 OA
ATOM      6  N   UNL     1      16.784 -21.630  -0.871  1.00  0.00    -0.254 N 
ATOM      7  C   UNL     1      17.473 -20.689  -0.160  1.00  0.00    +0.261 C 
ATOM      8  O   UNL     1      18.557 -20.861   0.383  1.00  0.00    -0.271 OA
ATOM      9  H   UNL     1      14.734 -19.262  -1.209  1.00  0.00    +0.166 HD
ENDROOT
BRANCH   2  10
ATOM     10  C   UNL     1      16.010 -19.045   1.213  1.00  0.00    -0.013 A 
ATOM     11  C   UNL     1      15.011 -18.053   1.289  1.00  0.00    +0.008 A 
ATOM     12  C   UNL     1      16.371 -19.707   2.402  1.00  0.00    +0.008 A 
ATOM     13  C   UNL     1      14.390 -17.739   2.501  1.00  0.00    +0.022 A 
ATOM     14  C   UNL     1      15.756 -19.396   3.618  1.00  0.00    +0.022 A 
ATOM     15  C   UNL     1      14.760 -18.423   3.659  1.00  0.00    +0.082 A 
BRANCH  15  16
ATOM     16  S   UNL     1      13.970 -18.044   5.197  1.00  0.00    +0.238 S 
ATOM     17  O   UNL     1      13.244 -19.209   5.644  1.00  0.00    -0.207 OA
ATOM     18  O   UNL     1      13.355 -16.741   5.088  1.00  0.00    -0.207 OA
BRANCH  16  19
ATOM     19  N   UNL     1      15.297 -17.845   6.216  1.00  0.00    -0.225 NA
ATOM     20  H   UNL     1      14.968 -17.815   7.182  1.00  0.00    +0.137 HD
ATOM     21  H   UNL     1      15.858 -17.025   5.986  1.00  0.00    +0.137 HD
ENDBRANCH  16  19
ENDBRANCH  15  16
ENDBRANCH   2  10
BRANCH   6  22
ATOM     22  C   UNL     1      17.125 -23.030  -0.940  1.00  0.00    +0.211 C 
BRANCH  22  23
ATOM     23  C   UNL     1      16.356 -23.746   0.165  1.00  0.00    +0.183 C 
ATOM     24  O   UNL     1      15.240 -24.234   0.007  1.00  0.00    -0.292 OA
BRANCH  23  25
ATOM     25  C   UNL     1      16.991 -23.849   1.502  1.00  0.00    +0.032 A 
ATOM     26  C   UNL     1      16.647 -22.907   2.484  1.00  0.00    +0.012 A 
ATOM     27  C   UNL     1      17.894 -24.888   1.795  1.00  0.00    +0.066 A 
ATOM     28  C   UNL     1      17.203 -22.989   3.760  1.00  0.00    +0.001 A 
ATOM     29  C   UNL     1      18.433 -24.956   3.093  1.00  0.00    +0.014 A 
ATOM     30  C   UNL     1      18.093 -24.013   4.066  1.00  0.00    +0.001 A 
BRANCH  27  31
ATOM     31  C   UNL     1      18.299 -25.924   0.771  1.00  0.00    +0.417 C 
ATOM     32  F   UNL     1      17.241 -26.538   0.177  1.00  0.00    -0.166 F 
ATOM     33  F   UNL     1      19.089 -25.436  -0.223  1.00  0.00    -0.166 F 
ATOM     34  F   UNL     1      19.029 -26.940   1.327  1.00  0.00    -0.166 F 
ENDBRANCH  27  31
ENDBRANCH  23  25
ENDBRANCH  22  23
ENDBRANCH   6  22
TORSDOF 7
ENDMDL
MODEL 2
REMARK VINA RESULT:    -8.622      2.463      4.689
REMARK INTER + INTRA:         -13.067
REMARK INTER:                 -12.354
REMARK INTRA:                  -0.713
REMARK UNBOUND:                -1.170
REMARK SMILES CC1(c2ccc(S(N)(=O)=O)cc2)NC(=O)N(CC(=O)c2ccccc2C(F)(F)F)C1=O
REMARK SMILES IDX 1 1 2 2 13 3 14 4 15 5 16 6 30 7 31 8 3 10 4 11 12 12 5 13
REMARK SMILES IDX 11 14 6 15 7 16 9 17 10 18 8 19 17 22 18 23 19 24 20 25
REMARK SMILES IDX 21 26 25 27 22 28 24 29 23 30 26 31 27 32 28 33 29 34
REMARK H PARENT 13 9 8 20 8 21
ROOT
ATOM      1  C   UNL     1      18.130 -24.050   4.607  1.00  0.00    +0.051 C 
ATOM      2  C   UNL     1      18.034 -22.909   3.592  1.00  0.00    +0.144 C 
ATOM      3  N   UNL     1      19.338 -22.328   3.333  1.00  0.00    -0.319 N 
ATOM      4  C   UNL     1      19.649 -22.333   1.996  1.00  0.00    +0.325 C 
ATOM      5  O   UNL     1      20.600 -21.746   1.507  1.00  0.00    -0.248 OA
ATOM      6  N   UNL     1      18.730 -23.081   1.337  1.00  0.00    -0.254 N 
ATOM      7  C   UNL     1      17.757 -23.511   2.193  1.00  0.00    +0.261 C 
ATOM      8  O   UNL     1      16.815 -24.235   1.895  1.00  0.00    -0.271 OA
ATOM      9  H   UNL     1      19.801 -21.663   3.938  1.00  0.00    +0.166 HD
ENDROOT
BRANCH   2  10
ATOM     10  C   UNL     1      17.060 -21.811   4.025  1.00  0.00    -0.013 A 
ATOM     11  C   UNL     1      16.694 -21.697   5.381  1.00  0.00    +0.008 A 
ATOM     12  C   UNL     1      16.524 -20.878   3.117  1.00  0.00    +0.008 A 
ATOM     13  C   UNL     1      15.833 -20.687   5.818  1.00  0.00    +0.022 A 
ATOM     14  C   UNL     1      15.658 -19.867   3.547  1.00  0.00    +0.022 A 
ATOM     15  C   UNL     1      15.328 -19.769   4.897  1.00  0.00    +0.082 A 
BRANCH  15  16
ATOM     16  S   UNL     1      14.247 -18.477   5.441  1.00  0.00    +0.238 S 
ATOM     17  O   UNL     1      14.874 -17.782   6.540  1.00  0.00    -0.207 OA
ATOM     18  O   UNL     1      12.905 -19.005   5.521  1.00  0.00    -0.207 OA
BRANCH  16  19
ATOM     19  N   UNL     1      14.260 -17.446   4.108  1.00  0.00    -0.225 NA
ATOM     20  H   UNL     1      13.338 -17.015   4.018  1.00  0.00    +0.137 HD
ATOM     21  H   UNL     1      14.542 -17.911   3.246  1.00  0.00    +0.137 HD
ENDBRANCH  16  19
ENDBRANCH  15  16
ENDBRANCH   2  10
BRANCH   6  22
ATOM     22  C   UNL     1      18.707 -23.251  -0.096  1.00  0.00    +0.211 C 
BRANCH  22  23
ATOM     23  C   UNL     1      18.832 -21.868  -0.725  1.00  0.00    +0.183 C 
ATOM     24  O   UNL     1      19.812 -21.502  -1.370  1.00  0.00    -0.292 OA
BRANCH  23  25
ATOM     25  C   UNL     1      17.710 -20.914  -0.539  1.00  0.00    +0.032 A 
ATOM     26  C   UNL     1      17.939 -19.742   0.199  1.00  0.00    +0.012 A 
ATOM     27  C   UNL     1      16.451 -21.158  -1.118  1.00  0.00    +0.066 A 
ATOM     28  C   UNL     1      16.917 -18.810   0.370  1.00  0.00    +0.001 A 
ATOM     29  C   UNL     1      15.438 -20.196  -0.940  1.00  0.00    +0.014 A 
ATOM     30  C   UNL     1      15.668 -19.035  -0.200  1.00  0.00    +0.001 A 
BRANCH  27  31
ATOM     31  C   UNL     1      16.153 -22.406  -1.918  1.00  0.00    +0.417 C 
ATOM     32  F   UNL     1      17.160 -22.759  -2.761  1.00  0.00    -0.166 F 
ATOM     33  F   UNL     1      15.870 -23.495  -1.154  1.00  0.00    -0.166 F 
ATOM     34  F   UNL     1      15.057 -22.252  -2.723  1.00  0.00    -0.166 F 
ENDBRANCH  27  31
ENDBRANCH  23  25
ENDBRANCH  22  23
ENDBRANCH   6  22
TORSDOF 7
ENDMDL
MODEL 3
REMARK VINA RESULT:    -8.575      4.005      6.652
REMARK INTER + INTRA:         -13.003
REMARK INTER:                 -12.270
REMARK INTRA:                  -0.732
REMARK UNBOUND:                -1.170
REMARK SMILES CC1(c2ccc(S(N)(=O)=O)cc2)NC(=O)N(CC(=O)c2ccccc2C(F)(F)F)C1=O
REMARK SMILES IDX 1 1 2 2 13 3 14 4 15 5 16 6 30 7 31 8 3 10 4 11 12 12 5 13
REMARK SMILES IDX 11 14 6 15 7 16 9 17 10 18 8 19 17 22 18 23 19 24 20 25
REMARK SMILES IDX 21 26 25 27 22 28 24 29 23 30 26 31 27 32 28 33 29 34
REMARK H PARENT 13 9 8 20 8 21
ROOT
ATOM      1  C   UNL     1      17.964 -22.393  -2.310  1.00  0.00    +0.051 C 
ATOM      2  C   UNL     1      18.165 -21.426  -1.143  1.00  0.00    +0.144 C 
ATOM      3  N   UNL     1      18.417 -20.078  -1.617  1.00  0.00    -0.319 N 
ATOM      4  C   UNL     1      17.535 -19.170  -1.085  1.00  0.00    +0.325 C 
ATOM      5  O   UNL     1      17.646 -17.960  -1.188  1.00  0.00    -0.248 OA
ATOM      6  N   UNL     1      16.551 -19.844  -0.440  1.00  0.00    -0.254 N 
ATOM      7  C   UNL     1      16.800 -21.187  -0.454  1.00  0.00    +0.261 C 
ATOM      8  O   UNL     1      16.070 -22.050   0.018  1.00  0.00    -0.271 OA
ATOM      9  H   UNL     1      19.309 -19.747  -1.960  1.00  0.00    +0.166 HD
ENDROOT
BRANCH   2  10
ATOM     10  C   UNL     1      19.293 -21.857  -0.202  1.00  0.00    -0.013 A 
ATOM     11  C   UNL     1      19.241 -21.498   1.160  1.00  0.00    +0.008 A 
ATOM     12  C   UNL     1      20.386 -22.630  -0.638  1.00  0.00    +0.008 A 
ATOM     13  C   UNL     1      20.236 -21.901   2.055  1.00  0.00    +0.022 A 
ATOM     14  C   UNL     1      21.386 -23.033   0.251  1.00  0.00    +0.022 A 
ATOM     15  C   UNL     1      21.299 -22.678   1.595  1.00  0.00    +0.082 A 
BRANCH  15  16
ATOM     16  S   UNL     1      22.558 -23.206   2.723  1.00  0.00    +0.238 S 
ATOM     17  O   UNL     1      23.564 -22.174   2.809  1.00  0.00    -0.207 OA
ATOM     18  O   UNL     1      22.883 -24.584   2.434  1.00  0.00    -0.207 OA
BRANCH  16  19
ATOM     19  N   UNL     1      21.716 -23.225   4.182  1.00  0.00    -0.225 NA
ATOM     20  H   UNL     1      21.421 -22.273   4.403  1.00  0.00    +0.137 HD
ATOM     21  H   UNL     1      22.249 -23.639   4.946  1.00  0.00    +0.137 HD
ENDBRANCH  16  19
ENDBRANCH  15  16
ENDBRANCH   2  10
BRANCH   6  22
ATOM     22  C   UNL     1      15.487 -19.206   0.296  1.00  0.00    +0.211 C 
BRANCH  22  23
ATOM     23  C   UNL     1      16.007 -18.918   1.700  1.00  0.00    +0.183 C 
ATOM     24  O   UNL     1      17.191 -19.009   2.016  1.00  0.00    -0.292 OA
BRANCH  23  25
ATOM     25  C   UNL     1      15.026 -18.515   2.738  1.00  0.00    +0.032 A 
ATOM     26  C   UNL     1      14.276 -17.346   2.537  1.00  0.00    +0.012 A 
ATOM     27  C   UNL     1      14.825 -19.303   3.887  1.00  0.00    +0.066 A 
ATOM     28  C   UNL     1      13.326 -16.951   3.477  1.00  0.00    +0.001 A 
ATOM     29  C   UNL     1      13.852 -18.889   4.817  1.00  0.00    +0.014 A 
ATOM     30  C   UNL     1      13.112 -17.722   4.615  1.00  0.00    +0.001 A 
BRANCH  27  31
ATOM     31  C   UNL     1      15.610 -20.567   4.152  1.00  0.00    +0.417 C 
ATOM     32  F   UNL     1      15.745 -21.359   3.055  1.00  0.00    -0.166 F 
ATOM     33  F   UNL     1      16.860 -20.346   4.643  1.00  0.00    -0.166 F 
ATOM     34  F   UNL     1      15.006 -21.362   5.088  1.00  0.00    -0.166 F 
ENDBRANCH  27  31
ENDBRANCH  23  25
ENDBRANCH  22  23
ENDBRANCH   6  22
TORSDOF 7
ENDMDL
MODEL 4
REMARK VINA RESULT:    -8.307      2.994      5.137
REMARK INTER + INTRA:         -12.633
REMARK INTER:                 -11.834
REMARK INTRA:                  -0.799
REMARK UNBOUND:                -1.170
REMARK SMILES CC1(c2ccc(S(N)(=O)=O)cc2)NC(=O)N(CC(=O)c2ccccc2C(F)(F)F)C1=O
REMARK SMILES IDX 1 1 2 2 13 3 14 4 15 5 16 6 30 7 31 8 3 10 4 11 12 12 5 13
REMARK SMILES IDX 11 14 6 15 7 16 9 17 10 18 8 19 17 22 18 23 19 24 20 25
REMARK SMILES IDX 21 26 25 27 22 28 24 29 23 30 26 31 27 32 28 33 29 34
REMARK H PARENT 13 9 8 20 8 21
ROOT
ATOM      1  C   UNL     1      18.264 -24.103   4.470  1.00  0.00    +0.051 C 
ATOM      2  C   UNL     1      18.232 -22.918   3.503  1.00  0.00    +0.144 C 
ATOM      3  N   UNL     1      19.552 -22.337   3.342  1.00  0.00    -0.319 N 
ATOM      4  C   UNL     1      19.936 -22.287   2.025  1.00  0.00    +0.325 C 
ATOM      5  O   UNL     1      20.917 -21.687   1.616  1.00  0.00    -0.248 OA
ATOM      6  N   UNL     1      19.051 -22.997   1.284  1.00  0.00    -0.254 N 
ATOM      7  C   UNL     1      18.029 -23.455   2.065  1.00  0.00    +0.261 C 
ATOM      8  O   UNL     1      17.101 -24.157   1.683  1.00  0.00    -0.271 OA
ATOM      9  H   UNL     1      19.984 -21.704   4.001  1.00  0.00    +0.166 HD
ENDROOT
BRANCH   2  10
ATOM     10  C   UNL     1      17.242 -21.831   3.928  1.00  0.00    -0.013 A 
ATOM     11  C   UNL     1      16.991 -21.614   5.299  1.00  0.00    +0.008 A 
ATOM     12  C   UNL     1      16.579 -21.008   2.999  1.00  0.00    +0.008 A 
ATOM     13  C   UNL     1      16.118 -20.609   5.726  1.00  0.00    +0.022 A 
ATOM     14  C   UNL     1      15.702 -20.003   3.420  1.00  0.00    +0.022 A 
ATOM     15  C   UNL     1      15.487 -19.801   4.781  1.00  0.00    +0.082 A 
BRANCH  15  16
ATOM     16  S   UNL     1      14.390 -18.516   5.311  1.00  0.00    +0.238 S 
ATOM     17  O   UNL     1      15.024 -17.778   6.378  1.00  0.00    -0.207 OA
ATOM     18  O   UNL     1      13.061 -19.069   5.433  1.00  0.00    -0.207 OA
BRANCH  16  19
ATOM     19  N   UNL     1      14.355 -17.523   3.951  1.00  0.00    -0.225 NA
ATOM     20  H   UNL     1      14.327 -18.111   3.116  1.00  0.00    +0.137 HD
ATOM     21  H   UNL     1      15.131 -16.862   3.918  1.00  0.00    +0.137 HD
ENDBRANCH  16  19
ENDBRANCH  15  16
ENDBRANCH   2  10
BRANCH   6  22
ATOM     22  C   UNL     1      19.107 -23.104  -0.154  1.00  0.00    +0.211 C 
BRANCH  22  23
ATOM     23  C   UNL     1      18.685 -21.758  -0.731  1.00  0.00    +0.183 C 
ATOM     24  O   UNL     1      19.467 -20.833  -0.938  1.00  0.00    -0.292 OA
BRANCH  23  25
ATOM     25  C   UNL     1      17.250 -21.556  -1.053  1.00  0.00    +0.032 A 
ATOM     26  C   UNL     1      16.549 -22.595  -1.685  1.00  0.00    +0.012 A 
ATOM     27  C   UNL     1      16.593 -20.361  -0.703  1.00  0.00    +0.066 A 
ATOM     28  C   UNL     1      15.194 -22.451  -1.976  1.00  0.00    +0.001 A 
ATOM     29  C   UNL     1      15.221 -20.244  -0.999  1.00  0.00    +0.014 A 
ATOM     30  C   UNL     1      14.530 -21.278  -1.633  1.00  0.00    +0.001 A 
BRANCH  27  31
ATOM     31  C   UNL     1      17.304 -19.211  -0.027  1.00  0.00    +0.417 C 
ATOM     32  F   UNL     1      18.112 -19.603   0.994  1.00  0.00    -0.166 F 
ATOM     33  F   UNL     1      18.060 -18.458  -0.871  1.00  0.00    -0.166 F 
ATOM     34  F   UNL     1      16.428 -18.324   0.538  1.00  0.00    -0.166 F 
ENDBRANCH  27  31
ENDBRANCH  23  25
ENDBRANCH  22  23
ENDBRANCH   6  22
TORSDOF 7
ENDMDL
MODEL 5
REMARK VINA RESULT:    -8.209      4.721      7.757
REMARK INTER + INTRA:         -12.499
REMARK INTER:                 -11.936
REMARK INTRA:                  -0.562
REMARK UNBOUND:                -1.170
REMARK SMILES CC1(c2ccc(S(N)(=O)=O)cc2)NC(=O)N(CC(=O)c2ccccc2C(F)(F)F)C1=O
REMARK SMILES IDX 1 1 2 2 13 3 14 4 15 5 16 6 30 7 31 8 3 10 4 11 12 12 5 13
REMARK SMILES IDX 11 14 6 15 7 16 9 17 10 18 8 19 17 22 18 23 19 24 20 25
REMARK SMILES IDX 21 26 25 27 22 28 24 29 23 30 26 31 27 32 28 33 29 34
REMARK H PARENT 13 9 8 20 8 21
ROOT
ATOM      1  C   UNL     1      15.924 -22.676  -1.147  1.00  0.00    +0.051 C 
ATOM      2  C   UNL     1      16.932 -21.577  -0.805  1.00  0.00    +0.144 C 
ATOM      3  N   UNL     1      16.375 -20.260  -1.054  1.00  0.00    -0.319 N 
ATOM      4  C   UNL     1      16.433 -19.457   0.058  1.00  0.00    +0.325 C 
ATOM      5  O   UNL     1      16.194 -18.261   0.057  1.00  0.00    -0.248 OA
ATOM      6  N   UNL     1      16.799 -20.211   1.123  1.00  0.00    -0.254 N 
ATOM      7  C   UNL     1      17.072 -21.492   0.734  1.00  0.00    +0.261 C 
ATOM      8  O   UNL     1      17.391 -22.409   1.480  1.00  0.00    -0.271 OA
ATOM      9  H   UNL     1      16.310 -19.827  -1.965  1.00  0.00    +0.166 HD
ENDROOT
BRANCH   2  10
ATOM     10  C   UNL     1      18.253 -21.726  -1.563  1.00  0.00    -0.013 A 
ATOM     11  C   UNL     1      18.328 -21.342  -2.917  1.00  0.00    +0.008 A 
ATOM     12  C   UNL     1      19.423 -22.215  -0.952  1.00  0.00    +0.008 A 
ATOM     13  C   UNL     1      19.525 -21.433  -3.633  1.00  0.00    +0.022 A 
ATOM     14  C   UNL     1      20.623 -22.312  -1.663  1.00  0.00    +0.022 A 
ATOM     15  C   UNL     1      20.670 -21.909  -2.995  1.00  0.00    +0.082 A 
BRANCH  15  16
ATOM     16  S   UNL     1      22.196 -22.016  -3.888  1.00  0.00    +0.238 S 
ATOM     17  O   UNL     1      22.131 -23.148  -4.780  1.00  0.00    -0.207 OA
ATOM     18  O   UNL     1      23.285 -21.822  -2.958  1.00  0.00    -0.207 OA
BRANCH  16  19
ATOM     19  N   UNL     1      22.135 -20.618  -4.826  1.00  0.00    -0.225 NA
ATOM     20  H   UNL     1      21.697 -19.875  -4.280  1.00  0.00    +0.137 HD
ATOM     21  H   UNL     1      21.661 -20.757  -5.718  1.00  0.00    +0.137 HD
ENDBRANCH  16  19
ENDBRANCH  15  16
ENDBRANCH   2  10
BRANCH   6  22
ATOM     22  C   UNL     1      17.025 -19.681   2.447  1.00  0.00    +0.211 C 
BRANCH  22  23
ATOM     23  C   UNL     1      15.793 -20.000   3.286  1.00  0.00    +0.183 C 
ATOM     24  O   UNL     1      15.452 -21.143   3.582  1.00  0.00    -0.292 OA
BRANCH  23  25
ATOM     25  C   UNL     1      14.960 -18.868   3.761  1.00  0.00    +0.032 A 
ATOM     26  C   UNL     1      14.260 -18.103   2.814  1.00  0.00    +0.012 A 
ATOM     27  C   UNL     1      14.845 -18.582   5.134  1.00  0.00    +0.066 A 
ATOM     28  C   UNL     1      13.446 -17.049   3.226  1.00  0.00    +0.001 A 
ATOM     29  C   UNL     1      14.009 -17.519   5.526  1.00  0.00    +0.014 A 
ATOM     30  C   UNL     1      13.319 -16.758   4.581  1.00  0.00    +0.001 A 
BRANCH  27  31
ATOM     31  C   UNL     1      15.582 -19.371   6.192  1.00  0.00    +0.417 C 
ATOM     32  F   UNL     1      14.992 -20.561   6.486  1.00  0.00    -0.166 F 
ATOM     33  F   UNL     1      16.880 -19.634   5.879  1.00  0.00    -0.166 F 
ATOM     34  F   UNL     1      15.642 -18.703   7.386  1.00  0.00    -0.166 F 
ENDBRANCH  27  31
ENDBRANCH  23  25
ENDBRANCH  22  23
ENDBRANCH   6  22
TORSDOF 7
ENDMDL
MODEL 6
REMARK VINA RESULT:    -7.921      1.597      2.103
REMARK INTER + INTRA:         -12.100
REMARK INTER:                 -11.293
REMARK INTRA:                  -0.807
REMARK UNBOUND:                -1.170
REMARK SMILES CC1(c2ccc(S(N)(=O)=O)cc2)NC(=O)N(CC(=O)c2ccccc2C(F)(F)F)C1=O
REMARK SMILES IDX 1 1 2 2 13 3 14 4 15 5 16 6 30 7 31 8 3 10 4 11 12 12 5 13
REMARK SMILES IDX 11 14 6 15 7 16 9 17 10 18 8 19 17 22 18 23 19 24 20 25
REMARK SMILES IDX 21 26 25 27 22 28 24 29 23 30 26 31 27 32 28 33 29 34
REMARK H PARENT 13 9 8 20 8 21
ROOT
ATOM      1  C   UNL     1      17.357 -18.278  -0.833  1.00  0.00    +0.051 C 
ATOM      2  C   UNL     1      16.637 -19.473  -0.206  1.00  0.00    +0.144 C 
ATOM      3  N   UNL     1      15.573 -19.954  -1.068  1.00  0.00    -0.319 N 
ATOM      4  C   UNL     1      15.707 -21.290  -1.355  1.00  0.00    +0.325 C 
ATOM      5  O   UNL     1      14.854 -21.965  -1.908  1.00  0.00    -0.248 OA
ATOM      6  N   UNL     1      16.919 -21.712  -0.919  1.00  0.00    -0.254 N 
ATOM      7  C   UNL     1      17.572 -20.705  -0.267  1.00  0.00    +0.261 C 
ATOM      8  O   UNL     1      18.700 -20.776   0.204  1.00  0.00    -0.271 OA
ATOM      9  H   UNL     1      14.660 -19.528  -1.147  1.00  0.00    +0.166 HD
ENDROOT
BRANCH   2  10
ATOM     10  C   UNL     1      16.070 -19.164   1.181  1.00  0.00    -0.013 A 
ATOM     11  C   UNL     1      15.156 -18.102   1.342  1.00  0.00    +0.008 A 
ATOM     12  C   UNL     1      16.407 -19.919   2.320  1.00  0.00    +0.008 A 
ATOM     13  C   UNL     1      14.593 -17.811   2.587  1.00  0.00    +0.022 A 
ATOM     14  C   UNL     1      15.851 -19.631   3.570  1.00  0.00    +0.022 A 
ATOM     15  C   UNL     1      14.937 -18.586   3.694  1.00  0.00    +0.082 A 
BRANCH  15  16
ATOM     16  S   UNL     1      14.219 -18.235   5.274  1.00  0.00    +0.238 S 
ATOM     17  O   UNL     1      13.607 -19.440   5.781  1.00  0.00    -0.207 OA
ATOM     18  O   UNL     1      13.509 -16.981   5.186  1.00  0.00    -0.207 OA
BRANCH  16  19
ATOM     19  N   UNL     1      15.590 -17.927   6.204  1.00  0.00    -0.225 NA
ATOM     20  H   UNL     1      16.283 -17.455   5.619  1.00  0.00    +0.137 HD
ATOM     21  H   UNL     1      15.975 -18.764   6.639  1.00  0.00    +0.137 HD
ENDBRANCH  16  19
ENDBRANCH  15  16
ENDBRANCH   2  10
BRANCH   6  22
ATOM     22  C   UNL     1      17.371 -23.080  -0.994  1.00  0.00    +0.211 C 
BRANCH  22  23
ATOM     23  C   UNL     1      17.098 -23.729   0.358  1.00  0.00    +0.183 C 
ATOM     24  O   UNL     1      16.432 -23.197   1.243  1.00  0.00    -0.292 OA
BRANCH  23  25
ATOM     25  C   UNL     1      17.675 -25.071   0.617  1.00  0.00    +0.032 A 
ATOM     26  C   UNL     1      16.865 -26.201   0.422  1.00  0.00    +0.012 A 
ATOM     27  C   UNL     1      19.017 -25.216   1.017  1.00  0.00    +0.066 A 
ATOM     28  C   UNL     1      17.382 -27.479   0.628  1.00  0.00    +0.001 A 
ATOM     29  C   UNL     1      19.519 -26.517   1.209  1.00  0.00    +0.014 A 
ATOM     30  C   UNL     1      18.708 -27.638   1.019  1.00  0.00    +0.001 A 
BRANCH  27  31
ATOM     31  C   UNL     1      19.928 -24.031   1.244  1.00  0.00    +0.417 C 
ATOM     32  F   UNL     1      19.375 -23.068   2.028  1.00  0.00    -0.166 F 
ATOM     33  F   UNL     1      21.128 -24.358   1.797  1.00  0.00    -0.166 F 
ATOM     34  F   UNL     1      20.247 -23.394   0.076  1.00  0.00    -0.166 F 
ENDBRANCH  27  31
ENDBRANCH  23  25
ENDBRANCH  22  23
ENDBRANCH   6  22
TORSDOF 7
ENDMDL
MODEL 7
REMARK VINA RESULT:    -7.868      4.983      7.671
REMARK INTER + INTRA:         -12.027
REMARK INTER:                 -11.066
REMARK INTRA:                  -0.962
REMARK UNBOUND:                -1.170
REMARK SMILES CC1(c2ccc(S(N)(=O)=O)cc2)NC(=O)N(CC(=O)c2ccccc2C(F)(F)F)C1=O
REMARK SMILES IDX 1 1 2 2 13 3 14 4 15 5 16 6 30 7 31 8 3 10 4 11 12 12 5 13
REMARK SMILES IDX 11 14 6 15 7 16 9 17 10 18 8 19 17 22 18 23 19 24 20 25
REMARK SMILES IDX 21 26 25 27 22 28 24 29 23 30 26 31 27 32 28 33 29 34
REMARK H PARENT 13 9 8 20 8 21
ROOT
ATOM      1  C   UNL     1      19.622 -26.173   1.547  1.00  0.00    +0.051 C 
ATOM      2  C   UNL     1      19.530 -24.674   1.836  1.00  0.00    +0.144 C 
ATOM      3  N   UNL     1      19.072 -23.942   0.669  1.00  0.00    -0.319 N 
ATOM      4  C   UNL     1      17.962 -23.182   0.939  1.00  0.00    +0.325 C 
ATOM      5  O   UNL     1      17.496 -22.348   0.181  1.00  0.00    -0.248 OA
ATOM      6  N   UNL     1      17.494 -23.512   2.168  1.00  0.00    -0.254 N 
ATOM      7  C   UNL     1      18.319 -24.421   2.768  1.00  0.00    +0.261 C 
ATOM      8  O   UNL     1      18.136 -24.933   3.865  1.00  0.00    -0.271 OA
ATOM      9  H   UNL     1      19.657 -23.688  -0.115  1.00  0.00    +0.166 HD
ENDROOT
BRANCH   2  10
ATOM     10  C   UNL     1      20.852 -24.081   2.326  1.00  0.00    -0.013 A 
ATOM     11  C   UNL     1      21.254 -24.279   3.663  1.00  0.00    +0.008 A 
ATOM     12  C   UNL     1      21.713 -23.355   1.482  1.00  0.00    +0.008 A 
ATOM     13  C   UNL     1      22.470 -23.780   4.137  1.00  0.00    +0.022 A 
ATOM     14  C   UNL     1      22.930 -22.850   1.951  1.00  0.00    +0.022 A 
ATOM     15  C   UNL     1      23.307 -23.077   3.273  1.00  0.00    +0.082 A 
BRANCH  15  16
ATOM     16  S   UNL     1      24.857 -22.452   3.859  1.00  0.00    +0.238 S 
ATOM     17  O   UNL     1      25.388 -21.537   2.877  1.00  0.00    -0.207 OA
ATOM     18  O   UNL     1      25.626 -23.555   4.387  1.00  0.00    -0.207 OA
BRANCH  16  19
ATOM     19  N   UNL     1      24.371 -21.547   5.194  1.00  0.00    -0.225 NA
ATOM     20  H   UNL     1      24.784 -21.954   6.034  1.00  0.00    +0.137 HD
ATOM     21  H   UNL     1      23.357 -21.468   5.275  1.00  0.00    +0.137 HD
ENDBRANCH  16  19
ENDBRANCH  15  16
ENDBRANCH   2  10
BRANCH   6  22
ATOM     22  C   UNL     1      16.375 -22.863   2.806  1.00  0.00    +0.211 C 
BRANCH  22  23
ATOM     23  C   UNL     1      16.889 -21.572   3.434  1.00  0.00    +0.183 C 
ATOM     24  O   UNL     1      17.905 -21.510   4.122  1.00  0.00    -0.292 OA
BRANCH  23  25
ATOM     25  C   UNL     1      16.114 -20.328   3.204  1.00  0.00    +0.032 A 
ATOM     26  C   UNL     1      16.313 -19.622   2.006  1.00  0.00    +0.012 A 
ATOM     27  C   UNL     1      15.172 -19.878   4.148  1.00  0.00    +0.066 A 
ATOM     28  C   UNL     1      15.582 -18.465   1.744  1.00  0.00    +0.001 A 
ATOM     29  C   UNL     1      14.439 -18.712   3.855  1.00  0.00    +0.014 A 
ATOM     30  C   UNL     1      14.645 -18.010   2.666  1.00  0.00    +0.001 A 
BRANCH  27  31
ATOM     31  C   UNL     1      14.924 -20.599   5.453  1.00  0.00    +0.417 C 
ATOM     32  F   UNL     1      14.590 -21.907   5.292  1.00  0.00    -0.166 F 
ATOM     33  F   UNL     1      15.976 -20.557   6.314  1.00  0.00    -0.166 F 
ATOM     34  F   UNL     1      13.881 -20.054   6.153  1.00  0.00    -0.166 F 
ENDBRANCH  27  31
ENDBRANCH  23  25
ENDBRANCH  22  23
ENDBRANCH   6  22
TORSDOF 7
ENDMDL
MODEL 8
REMARK VINA RESULT:    -7.720      4.956      8.345
REMARK INTER + INTRA:         -11.823
REMARK INTER:                 -11.370
REMARK INTRA:                  -0.453
REMARK UNBOUND:                -1.170
REMARK SMILES CC1(c2ccc(S(N)(=O)=O)cc2)NC(=O)N(CC(=O)c2ccccc2C(F)(F)F)C1=O
REMARK SMILES IDX 1 1 2 2 13 3 14 4 15 5 16 6 30 7 31 8 3 10 4 11 12 12 5 13
REMARK SMILES IDX 11 14 6 15 7 16 9 17 10 18 8 19 17 22 18 23 19 24 20 25
REMARK SMILES IDX 21 26 25 27 22 28 24 29 23 30 26 31 27 32 28 33 29 34
REMARK H PARENT 13 9 8 20 8 21
ROOT
ATOM      1  C   UNL     1      19.554 -21.917   0.914  1.00  0.00    +0.051 C 
ATOM      2  C   UNL     1      18.803 -22.817   1.897  1.00  0.00    +0.144 C 
ATOM      3  N   UNL     1      19.315 -22.661   3.246  1.00  0.00    -0.319 N 
ATOM      4  C   UNL     1      18.326 -22.329   4.138  1.00  0.00    +0.325 C 
ATOM      5  O   UNL     1      18.467 -22.317   5.349  1.00  0.00    -0.248 OA
ATOM      6  N   UNL     1      17.197 -22.034   3.448  1.00  0.00    -0.254 N 
ATOM      7  C   UNL     1      17.382 -22.242   2.111  1.00  0.00    +0.261 C 
ATOM      8  O   UNL     1      16.553 -22.027   1.236  1.00  0.00    -0.271 OA
ATOM      9  H   UNL     1      20.159 -23.095   3.593  1.00  0.00    +0.166 HD
ENDROOT
BRANCH   2  10
ATOM     10  C   UNL     1      18.846 -24.294   1.500  1.00  0.00    -0.013 A 
ATOM     11  C   UNL     1      17.720 -25.111   1.727  1.00  0.00    +0.008 A 
ATOM     12  C   UNL     1      19.970 -24.878   0.886  1.00  0.00    +0.008 A 
ATOM     13  C   UNL     1      17.711 -26.456   1.349  1.00  0.00    +0.022 A 
ATOM     14  C   UNL     1      19.969 -26.225   0.509  1.00  0.00    +0.022 A 
ATOM     15  C   UNL     1      18.835 -27.003   0.731  1.00  0.00    +0.082 A 
BRANCH  15  16
ATOM     16  S   UNL     1      18.830 -28.703   0.234  1.00  0.00    +0.238 S 
ATOM     17  O   UNL     1      19.368 -28.796  -1.102  1.00  0.00    -0.207 OA
ATOM     18  O   UNL     1      17.560 -29.284   0.602  1.00  0.00    -0.207 OA
BRANCH  16  19
ATOM     19  N   UNL     1      19.964 -29.364   1.291  1.00  0.00    -0.225 NA
ATOM     20  H   UNL     1      20.162 -28.684   2.027  1.00  0.00    +0.137 HD
ATOM     21  H   UNL     1      20.817 -29.667   0.822  1.00  0.00    +0.137 HD
ENDBRANCH  16  19
ENDBRANCH  15  16
ENDBRANCH   2  10
BRANCH   6  22
ATOM     22  C   UNL     1      15.935 -21.707   4.069  1.00  0.00    +0.211 C 
BRANCH  22  23
ATOM     23  C   UNL     1      16.021 -20.262   4.549  1.00  0.00    +0.183 C 
ATOM     24  O   UNL     1      16.565 -19.928   5.598  1.00  0.00    -0.292 OA
BRANCH  23  25
ATOM     25  C   UNL     1      15.405 -19.209   3.704  1.00  0.00    +0.032 A 
ATOM     26  C   UNL     1      15.958 -18.953   2.439  1.00  0.00    +0.012 A 
ATOM     27  C   UNL     1      14.270 -18.502   4.143  1.00  0.00    +0.066 A 
ATOM     28  C   UNL     1      15.389 -17.990   1.607  1.00  0.00    +0.001 A 
ATOM     29  C   UNL     1      13.707 -17.543   3.280  1.00  0.00    +0.014 A 
ATOM     30  C   UNL     1      14.264 -17.287   2.025  1.00  0.00    +0.001 A 
BRANCH  27  31
ATOM     31  C   UNL     1      13.641 -18.738   5.497  1.00  0.00    +0.417 C 
ATOM     32  F   UNL     1      12.403 -18.187   5.620  1.00  0.00    -0.166 F 
ATOM     33  F   UNL     1      13.529 -20.052   5.832  1.00  0.00    -0.166 F 
ATOM     34  F   UNL     1      14.375 -18.183   6.510  1.00  0.00    -0.166 F 
ENDBRANCH  27  31
ENDBRANCH  23  25
ENDBRANCH  22  23
ENDBRANCH   6  22
TORSDOF 7
ENDMDL
MODEL 9
REMARK VINA RESULT:    -7.698      3.669      5.257
REMARK INTER + INTRA:         -11.793
REMARK INTER:                 -10.748
REMARK INTRA:                  -1.045
REMARK UNBOUND:                -1.170
REMARK SMILES CC1(c2ccc(S(N)(=O)=O)cc2)NC(=O)N(CC(=O)c2ccccc2C(F)(F)F)C1=O
REMARK SMILES IDX 1 1 2 2 13 3 14 4 15 5 16 6 30 7 31 8 3 10 4 11 12 12 5 13
REMARK SMILES IDX 11 14 6 15 7 16 9 17 10 18 8 19 17 22 18 23 19 24 20 25
REMARK SMILES IDX 21 26 25 27 22 28 24 29 23 30 26 31 27 32 28 33 29 34
REMARK H PARENT 13 9 8 20 8 21
ROOT
ATOM      1  C   UNL     1      17.368 -24.032   3.186  1.00  0.00    +0.051 C 
ATOM      2  C   UNL     1      17.675 -22.610   2.713  1.00  0.00    +0.144 C 
ATOM      3  N   UNL     1      19.068 -22.272   2.940  1.00  0.00    -0.319 N 
ATOM      4  C   UNL     1      19.694 -21.862   1.789  1.00  0.00    +0.325 C 
ATOM      5  O   UNL     1      20.805 -21.360   1.750  1.00  0.00    -0.248 OA
ATOM      6  N   UNL     1      18.873 -22.102   0.736  1.00  0.00    -0.254 N 
ATOM      7  C   UNL     1      17.672 -22.589   1.166  1.00  0.00    +0.261 C 
ATOM      8  O   UNL     1      16.744 -22.933   0.443  1.00  0.00    -0.271 OA
ATOM      9  H   UNL     1      19.453 -21.990   3.831  1.00  0.00    +0.166 HD
ENDROOT
BRANCH   2  10
ATOM     10  C   UNL     1      16.780 -21.559   3.373  1.00  0.00    -0.013 A 
ATOM     11  C   UNL     1      16.248 -21.800   4.655  1.00  0.00    +0.008 A 
ATOM     12  C   UNL     1      16.479 -20.329   2.756  1.00  0.00    +0.008 A 
ATOM     13  C   UNL     1      15.453 -20.850   5.302  1.00  0.00    +0.022 A 
ATOM     14  C   UNL     1      15.682 -19.376   3.396  1.00  0.00    +0.022 A 
ATOM     15  C   UNL     1      15.184 -19.636   4.671  1.00  0.00    +0.082 A 
BRANCH  15  16
ATOM     16  S   UNL     1      14.189 -18.419   5.486  1.00  0.00    +0.238 S 
ATOM     17  O   UNL     1      14.939 -17.875   6.593  1.00  0.00    -0.207 OA
ATOM     18  O   UNL     1      12.853 -18.945   5.637  1.00  0.00    -0.207 OA
BRANCH  16  19
ATOM     19  N   UNL     1      14.084 -17.224   4.302  1.00  0.00    -0.225 NA
ATOM     20  H   UNL     1      13.130 -16.860   4.288  1.00  0.00    +0.137 HD
ATOM     21  H   UNL     1      14.376 -17.548   3.381  1.00  0.00    +0.137 HD
ENDBRANCH  16  19
ENDBRANCH  15  16
ENDBRANCH   2  10
BRANCH   6  22
ATOM     22  C   UNL     1      19.179 -21.733  -0.625  1.00  0.00    +0.211 C 
BRANCH  22  23
ATOM     23  C   UNL     1      19.945 -22.892  -1.253  1.00  0.00    +0.183 C 
ATOM     24  O   UNL     1      19.557 -24.057  -1.222  1.00  0.00    -0.292 OA
BRANCH  23  25
ATOM     25  C   UNL     1      21.230 -22.592  -1.932  1.00  0.00    +0.032 A 
ATOM     26  C   UNL     1      22.421 -22.702  -1.197  1.00  0.00    +0.012 A 
ATOM     27  C   UNL     1      21.262 -22.237  -3.294  1.00  0.00    +0.066 A 
ATOM     28  C   UNL     1      23.648 -22.455  -1.810  1.00  0.00    +0.001 A 
ATOM     29  C   UNL     1      22.515 -22.003  -3.892  1.00  0.00    +0.014 A 
ATOM     30  C   UNL     1      23.696 -22.107  -3.156  1.00  0.00    +0.001 A 
BRANCH  27  31
ATOM     31  C   UNL     1      20.008 -22.101  -4.127  1.00  0.00    +0.417 C 
ATOM     32  F   UNL     1      19.345 -23.276  -4.300  1.00  0.00    -0.166 F 
ATOM     33  F   UNL     1      19.112 -21.205  -3.632  1.00  0.00    -0.166 F 
ATOM     34  F   UNL     1      20.276 -21.659  -5.395  1.00  0.00    -0.166 F 
ENDBRANCH  27  31
ENDBRANCH  23  25
ENDBRANCH  22  23
ENDBRANCH   6  22
TORSDOF 7
ENDMDL
