MODEL 1
REMARK VINA RESULT:    -8.149      0.000      0.000
REMARK INTER + INTRA:         -11.860
REMARK INTER:                 -11.008
REMARK INTRA:                  -0.852
REMARK UNBOUND:                -0.852
REMARK SMILES C=CP(=O)(Nc1cc(C(F)(F)F)cc2c(=O)nc(N3CCC4(CC3)OC[C@H](C)O4)sc12)OCC
REMARK SMILES IDX 3 1 4 2 2 3 1 4 5 5 6 7 7 8 31 9 8 10 30 11 14 12 13 13
REMARK SMILES IDX 18 14 15 15 17 16 19 17 16 18 20 19 24 20 21 21 23 22 22 23
REMARK SMILES IDX 25 24 29 25 26 26 27 27 28 28 9 29 10 30 11 31 12 32 32 33
REMARK SMILES IDX 33 34 34 35
REMARK H PARENT 5 6
ROOT
ATOM      1  P   UNL     1      16.472 -18.812   0.474  1.00  0.00    +0.316 P 
ATOM      2  O   UNL     1      17.244 -18.102  -0.599  1.00  0.00    -0.263 OA
ENDROOT
BRANCH   1   3
ATOM      3  C   UNL     1      15.201 -18.027   1.397  1.00  0.00    +0.084 C 
ATOM      4  C   UNL     1      14.932 -16.713   1.356  1.00  0.00    +0.017 C 
ENDBRANCH   1   3
BRANCH   1   5
ATOM      5  N   UNL     1      17.195 -19.163   1.902  1.00  0.00    -0.311 N 
ATOM      6  H   UNL     1      18.191 -18.968   1.938  1.00  0.00    +0.170 HD
BRANCH   5   7
ATOM      7  C   UNL     1      16.932 -20.303   2.706  1.00  0.00    +0.060 A 
ATOM      8  C   UNL     1      15.905 -20.302   3.664  1.00  0.00    +0.040 A 
ATOM      9  C   UNL     1      17.785 -21.429   2.628  1.00  0.00    +0.067 A 
ATOM     10  C   UNL     1      15.691 -21.397   4.517  1.00  0.00    +0.058 A 
ATOM     11  S   UNL     1      19.161 -21.452   1.501  1.00  0.00    -0.096 SA
ATOM     12  C   UNL     1      17.573 -22.519   3.468  1.00  0.00    +0.062 A 
ATOM     13  C   UNL     1      16.541 -22.503   4.417  1.00  0.00    +0.028 A 
ATOM     14  C   UNL     1      19.378 -23.186   1.283  1.00  0.00    +0.189 C 
ATOM     15  C   UNL     1      18.466 -23.691   3.385  1.00  0.00    +0.281 C 
ATOM     16  N   UNL     1      19.016 -24.043   2.186  1.00  0.00    -0.181 NA
ATOM     17  N   UNL     1      19.943 -23.617   0.084  1.00  0.00    -0.348 N 
ATOM     18  O   UNL     1      18.621 -24.362   4.401  1.00  0.00    -0.267 OA
ATOM     19  C   UNL     1      20.183 -25.057  -0.117  1.00  0.00    +0.124 C 
ATOM     20  C   UNL     1      20.851 -22.806  -0.738  1.00  0.00    +0.124 C 
ATOM     21  C   UNL     1      21.591 -25.404   0.355  1.00  0.00    +0.087 C 
ATOM     22  C   UNL     1      22.286 -23.053  -0.287  1.00  0.00    +0.087 C 
ATOM     23  C   UNL     1      22.627 -24.543  -0.370  1.00  0.00    +0.172 C 
ATOM     24  O   UNL     1      22.686 -24.927  -1.760  1.00  0.00    -0.347 OA
ATOM     25  O   UNL     1      23.916 -24.768   0.231  1.00  0.00    -0.344 OA
ATOM     26  C   UNL     1      23.903 -25.665  -1.885  1.00  0.00    +0.195 C 
ATOM     27  C   UNL     1      24.801 -25.013  -0.864  1.00  0.00    +0.144 C 
ATOM     28  C   UNL     1      25.964 -25.876  -0.425  1.00  0.00    +0.041 C 
BRANCH  10  29
ATOM     29  C   UNL     1      14.597 -21.361   5.557  1.00  0.00    +0.416 C 
ATOM     30  F   UNL     1      14.908 -22.055   6.687  1.00  0.00    -0.166 F 
ATOM     31  F   UNL     1      14.298 -20.098   5.968  1.00  0.00    -0.166 F 
ATOM     32  F   UNL     1      13.433 -21.895   5.097  1.00  0.00    -0.166 F 
ENDBRANCH  10  29
ENDBRANCH   5   7
ENDBRANCH   1   5
BRANCH   1  33
ATOM     33  O   UNL     1      15.783 -20.172  -0.067  1.00  0.00    -0.311 OA
BRANCH  33  34
ATOM     34  C   UNL     1      16.458 -20.863  -1.104  1.00  0.00    +0.167 C 
ATOM     35  C   UNL     1      16.285 -22.352  -0.885  1.00  0.00    +0.035 C 
ENDBRANCH  33  34
ENDBRANCH   1  33
TORSDOF 6
ENDMDL
MODEL 2
REMARK VINA RESULT:    -7.747      3.572      5.092
REMARK INTER + INTRA:         -11.317
REMARK INTER:                 -10.488
REMARK INTRA:                  -0.829
REMARK UNBOUND:                -0.852
REMARK SMILES C=CP(=O)(Nc1cc(C(F)(F)F)cc2c(=O)nc(N3CCC4(CC3)OC[C@H](C)O4)sc12)OCC
REMARK SMILES IDX 3 1 4 2 2 3 1 4 5 5 6 7 7 8 31 9 8 10 30 11 14 12 13 13
REMARK SMILES IDX 18 14 15 15 17 16 19 17 16 18 20 19 24 20 21 21 23 22 22 23
REMARK SMILES IDX 25 24 29 25 26 26 27 27 28 28 9 29 10 30 11 31 12 32 32 33
REMARK SMILES IDX 33 34 34 35
REMARK H PARENT 5 6
ROOT
ATOM      1  P   UNL     1      16.627 -21.020   5.297  1.00  0.00    +0.316 P 
ATOM      2  O   UNL     1      17.845 -21.052   6.173  1.00  0.00    -0.263 OA
ENDROOT
BRANCH   1   3
ATOM      3  C   UNL     1      15.141 -21.855   5.718  1.00  0.00    +0.084 C 
ATOM      4  C   UNL     1      13.999 -21.775   5.018  1.00  0.00    +0.017 C 
ENDBRANCH   1   3
BRANCH   1   5
ATOM      5  N   UNL     1      16.615 -21.857   3.888  1.00  0.00    -0.311 N 
ATOM      6  H   UNL     1      16.808 -22.850   3.978  1.00  0.00    +0.170 HD
BRANCH   5   7
ATOM      7  C   UNL     1      17.146 -21.407   2.652  1.00  0.00    +0.060 A 
ATOM      8  C   UNL     1      16.449 -20.491   1.846  1.00  0.00    +0.040 A 
ATOM      9  C   UNL     1      18.348 -21.967   2.157  1.00  0.00    +0.067 A 
ATOM     10  C   UNL     1      16.931 -20.103   0.585  1.00  0.00    +0.058 A 
ATOM     11  S   UNL     1      19.226 -23.202   3.089  1.00  0.00    -0.096 SA
ATOM     12  C   UNL     1      18.831 -21.581   0.910  1.00  0.00    +0.062 A 
ATOM     13  C   UNL     1      18.125 -20.663   0.120  1.00  0.00    +0.028 A 
ATOM     14  C   UNL     1      20.855 -22.994   2.454  1.00  0.00    +0.189 C 
ATOM     15  C   UNL     1      20.084 -22.169   0.398  1.00  0.00    +0.281 C 
ATOM     16  N   UNL     1      21.076 -22.521   1.267  1.00  0.00    -0.181 NA
ATOM     17  N   UNL     1      21.918 -23.342   3.286  1.00  0.00    -0.348 N 
ATOM     18  O   UNL     1      20.219 -22.250  -0.819  1.00  0.00    -0.267 OA
ATOM     19  C   UNL     1      23.295 -23.226   2.774  1.00  0.00    +0.124 C 
ATOM     20  C   UNL     1      21.832 -24.341   4.360  1.00  0.00    +0.124 C 
ATOM     21  C   UNL     1      23.711 -24.550   2.143  1.00  0.00    +0.087 C 
ATOM     22  C   UNL     1      22.180 -25.713   3.794  1.00  0.00    +0.087 C 
ATOM     23  C   UNL     1      23.569 -25.693   3.151  1.00  0.00    +0.172 C 
ATOM     24  O   UNL     1      24.558 -25.545   4.191  1.00  0.00    -0.347 OA
ATOM     25  O   UNL     1      23.793 -26.940   2.468  1.00  0.00    -0.344 OA
ATOM     26  C   UNL     1      25.540 -26.544   3.909  1.00  0.00    +0.195 C 
ATOM     27  C   UNL     1      24.726 -27.651   3.285  1.00  0.00    +0.144 C 
ATOM     28  C   UNL     1      25.539 -28.615   2.448  1.00  0.00    +0.041 C 
BRANCH  10  29
ATOM     29  C   UNL     1      16.151 -19.137  -0.274  1.00  0.00    +0.416 C 
ATOM     30  F   UNL     1      15.055 -19.701  -0.856  1.00  0.00    -0.166 F 
ATOM     31  F   UNL     1      15.689 -18.063   0.423  1.00  0.00    -0.166 F 
ATOM     32  F   UNL     1      16.899 -18.634  -1.292  1.00  0.00    -0.166 F 
ENDBRANCH  10  29
ENDBRANCH   5   7
ENDBRANCH   1   5
BRANCH   1  33
ATOM     33  O   UNL     1      16.150 -19.510   4.967  1.00  0.00    -0.311 OA
BRANCH  33  34
ATOM     34  C   UNL     1      15.818 -18.688   6.072  1.00  0.00    +0.167 C 
ATOM     35  C   UNL     1      14.458 -18.068   5.824  1.00  0.00    +0.035 C 
ENDBRANCH  33  34
ENDBRANCH   1  33
TORSDOF 6
ENDMDL
MODEL 3
REMARK VINA RESULT:    -7.610      4.288      6.015
REMARK INTER + INTRA:         -11.132
REMARK INTER:                 -10.450
REMARK INTRA:                  -0.682
REMARK UNBOUND:                -0.852
REMARK SMILES C=CP(=O)(Nc1cc(C(F)(F)F)cc2c(=O)nc(N3CCC4(CC3)OC[C@H](C)O4)sc12)OCC
REMARK SMILES IDX 3 1 4 2 2 3 1 4 5 5 6 7 7 8 31 9 8 10 30 11 14 12 13 13
REMARK SMILES IDX 18 14 15 15 17 16 19 17 16 18 20 19 24 20 21 21 23 22 22 23
REMARK SMILES IDX 25 24 29 25 26 26 27 27 28 28 9 29 10 30 11 31 12 32 32 33
REMARK SMILES IDX 33 34 34 35
REMARK H PARENT 5 6
ROOT
ATOM      1  P   UNL     1      20.189 -21.672  -4.205  1.00  0.00    +0.316 P 
ATOM      2  O   UNL     1      19.167 -20.645  -4.594  1.00  0.00    -0.263 OA
ENDROOT
BRANCH   1   3
ATOM      3  C   UNL     1      20.542 -23.074  -5.201  1.00  0.00    +0.084 C 
ATOM      4  C   UNL     1      20.313 -23.146  -6.522  1.00  0.00    +0.017 C 
ENDBRANCH   1   3
BRANCH   1   5
ATOM      5  N   UNL     1      19.873 -22.712  -2.978  1.00  0.00    -0.311 N 
ATOM      6  H   UNL     1      19.937 -23.696  -3.223  1.00  0.00    +0.170 HD
BRANCH   5   7
ATOM      7  C   UNL     1      18.855 -22.558  -2.002  1.00  0.00    +0.060 A 
ATOM      8  C   UNL     1      17.530 -22.266  -2.368  1.00  0.00    +0.040 A 
ATOM      9  C   UNL     1      19.188 -22.586  -0.628  1.00  0.00    +0.067 A 
ATOM     10  C   UNL     1      16.534 -22.034  -1.405  1.00  0.00    +0.058 A 
ATOM     11  S   UNL     1      20.867 -22.856  -0.105  1.00  0.00    -0.096 SA
ATOM     12  C   UNL     1      18.203 -22.361   0.329  1.00  0.00    +0.062 A 
ATOM     13  C   UNL     1      16.885 -22.075  -0.051  1.00  0.00    +0.028 A 
ATOM     14  C   UNL     1      20.606 -23.502   1.513  1.00  0.00    +0.189 C 
ATOM     15  C   UNL     1      18.555 -22.390   1.763  1.00  0.00    +0.281 C 
ATOM     16  N   UNL     1      19.545 -23.221   2.203  1.00  0.00    -0.181 NA
ATOM     17  N   UNL     1      21.582 -24.352   2.029  1.00  0.00    -0.348 N 
ATOM     18  O   UNL     1      17.881 -21.710   2.529  1.00  0.00    -0.267 OA
ATOM     19  C   UNL     1      21.423 -24.876   3.398  1.00  0.00    +0.124 C 
ATOM     20  C   UNL     1      22.997 -24.322   1.633  1.00  0.00    +0.124 C 
ATOM     21  C   UNL     1      22.110 -23.935   4.381  1.00  0.00    +0.087 C 
ATOM     22  C   UNL     1      23.748 -23.352   2.537  1.00  0.00    +0.087 C 
ATOM     23  C   UNL     1      23.582 -23.749   4.007  1.00  0.00    +0.172 C 
ATOM     24  O   UNL     1      24.298 -24.980   4.237  1.00  0.00    -0.347 OA
ATOM     25  O   UNL     1      24.143 -22.719   4.841  1.00  0.00    -0.344 OA
ATOM     26  C   UNL     1      25.058 -24.745   5.425  1.00  0.00    +0.195 C 
ATOM     27  C   UNL     1      25.361 -23.270   5.346  1.00  0.00    +0.144 C 
ATOM     28  C   UNL     1      25.718 -22.643   6.677  1.00  0.00    +0.041 C 
BRANCH  10  29
ATOM     29  C   UNL     1      15.123 -21.696  -1.822  1.00  0.00    +0.416 C 
ATOM     30  F   UNL     1      14.205 -22.608  -1.396  1.00  0.00    -0.166 F 
ATOM     31  F   UNL     1      14.702 -20.494  -1.341  1.00  0.00    -0.166 F 
ATOM     32  F   UNL     1      14.988 -21.631  -3.174  1.00  0.00    -0.166 F 
ENDBRANCH  10  29
ENDBRANCH   5   7
ENDBRANCH   1   5
BRANCH   1  33
ATOM     33  O   UNL     1      21.639 -21.015  -3.921  1.00  0.00    -0.311 OA
BRANCH  33  34
ATOM     34  C   UNL     1      22.767 -21.858  -4.083  1.00  0.00    +0.167 C 
ATOM     35  C   UNL     1      23.517 -21.923  -2.768  1.00  0.00    +0.035 C 
ENDBRANCH  33  34
ENDBRANCH   1  33
TORSDOF 6
ENDMDL
MODEL 4
REMARK VINA RESULT:    -7.539      3.676      4.674
REMARK INTER + INTRA:         -11.036
REMARK INTER:                 -10.045
REMARK INTRA:                  -0.992
REMARK UNBOUND:                -0.852
REMARK SMILES C=CP(=O)(Nc1cc(C(F)(F)F)cc2c(=O)nc(N3CCC4(CC3)OC[C@H](C)O4)sc12)OCC
REMARK SMILES IDX 3 1 4 2 2 3 1 4 5 5 6 7 7 8 31 9 8 10 30 11 14 12 13 13
REMARK SMILES IDX 18 14 15 15 17 16 19 17 16 18 20 19 24 20 21 21 23 22 22 23
REMARK SMILES IDX 25 24 29 25 26 26 27 27 28 28 9 29 10 30 11 31 12 32 32 33
REMARK SMILES IDX 33 34 34 35
REMARK H PARENT 5 6
ROOT
ATOM      1  P   UNL     1      16.785 -19.522   0.068  1.00  0.00    +0.316 P 
ATOM      2  O   UNL     1      16.717 -18.619  -1.128  1.00  0.00    -0.263 OA
ENDROOT
BRANCH   1   3
ATOM      3  C   UNL     1      16.269 -19.010   1.666  1.00  0.00    +0.084 C 
ATOM      4  C   UNL     1      15.040 -18.555   1.959  1.00  0.00    +0.017 C 
ENDBRANCH   1   3
BRANCH   1   5
ATOM      5  N   UNL     1      18.239 -19.886   0.732  1.00  0.00    -0.311 N 
ATOM      6  H   UNL     1      19.020 -19.341   0.380  1.00  0.00    +0.170 HD
BRANCH   5   7
ATOM      7  C   UNL     1      18.706 -21.190   1.041  1.00  0.00    +0.060 A 
ATOM      8  C   UNL     1      18.528 -21.747   2.319  1.00  0.00    +0.040 A 
ATOM      9  C   UNL     1      19.464 -21.910   0.088  1.00  0.00    +0.067 A 
ATOM     10  C   UNL     1      19.057 -23.004   2.655  1.00  0.00    +0.058 A 
ATOM     11  S   UNL     1      19.804 -21.216  -1.514  1.00  0.00    -0.096 SA
ATOM     12  C   UNL     1      19.985 -23.158   0.416  1.00  0.00    +0.062 A 
ATOM     13  C   UNL     1      19.796 -23.701   1.694  1.00  0.00    +0.028 A 
ATOM     14  C   UNL     1      20.073 -22.680  -2.455  1.00  0.00    +0.189 C 
ATOM     15  C   UNL     1      20.777 -23.904  -0.582  1.00  0.00    +0.281 C 
ATOM     16  N   UNL     1      20.488 -23.781  -1.910  1.00  0.00    -0.181 NA
ATOM     17  N   UNL     1      19.806 -22.623  -3.822  1.00  0.00    -0.348 N 
ATOM     18  O   UNL     1      21.631 -24.681  -0.165  1.00  0.00    -0.267 OA
ATOM     19  C   UNL     1      20.063 -23.814  -4.651  1.00  0.00    +0.124 C 
ATOM     20  C   UNL     1      19.866 -21.394  -4.624  1.00  0.00    +0.124 C 
ATOM     21  C   UNL     1      21.483 -23.747  -5.203  1.00  0.00    +0.087 C 
ATOM     22  C   UNL     1      21.279 -21.221  -5.169  1.00  0.00    +0.087 C 
ATOM     23  C   UNL     1      21.694 -22.448  -5.984  1.00  0.00    +0.172 C 
ATOM     24  O   UNL     1      20.914 -22.483  -7.197  1.00  0.00    -0.347 OA
ATOM     25  O   UNL     1      23.088 -22.339  -6.328  1.00  0.00    -0.344 OA
ATOM     26  C   UNL     1      21.866 -22.712  -8.239  1.00  0.00    +0.195 C 
ATOM     27  C   UNL     1      23.104 -22.024  -7.722  1.00  0.00    +0.144 C 
ATOM     28  C   UNL     1      24.389 -22.507  -8.361  1.00  0.00    +0.041 C 
BRANCH  10  29
ATOM     29  C   UNL     1      18.876 -23.570   4.043  1.00  0.00    +0.416 C 
ATOM     30  F   UNL     1      19.117 -22.662   5.029  1.00  0.00    -0.166 F 
ATOM     31  F   UNL     1      17.614 -24.031   4.265  1.00  0.00    -0.166 F 
ATOM     32  F   UNL     1      19.709 -24.618   4.285  1.00  0.00    -0.166 F 
ENDBRANCH  10  29
ENDBRANCH   5   7
ENDBRANCH   1   5
BRANCH   1  33
ATOM     33  O   UNL     1      16.000 -20.916  -0.171  1.00  0.00    -0.311 OA
BRANCH  33  34
ATOM     34  C   UNL     1      15.526 -21.167  -1.483  1.00  0.00    +0.167 C 
ATOM     35  C   UNL     1      16.317 -22.316  -2.072  1.00  0.00    +0.035 C 
ENDBRANCH  33  34
ENDBRANCH   1  33
TORSDOF 6
ENDMDL
MODEL 5
REMARK VINA RESULT:    -7.513      3.148      5.166
REMARK INTER + INTRA:         -11.000
REMARK INTER:                  -9.751
REMARK INTRA:                  -1.249
REMARK UNBOUND:                -0.852
REMARK SMILES C=CP(=O)(Nc1cc(C(F)(F)F)cc2c(=O)nc(N3CCC4(CC3)OC[C@H](C)O4)sc12)OCC
REMARK SMILES IDX 3 1 4 2 2 3 1 4 5 5 6 7 7 8 31 9 8 10 30 11 14 12 13 13
REMARK SMILES IDX 18 14 15 15 17 16 19 17 16 18 20 19 24 20 21 21 23 22 22 23
REMARK SMILES IDX 25 24 29 25 26 26 27 27 28 28 9 29 10 30 11 31 12 32 32 33
REMARK SMILES IDX 33 34 34 35
REMARK H PARENT 5 6
ROOT
ATOM      1  P   UNL     1      18.649 -23.000   3.882  1.00  0.00    +0.316 P 
ATOM      2  O   UNL     1      18.121 -22.246   5.066  1.00  0.00    -0.263 OA
ENDROOT
BRANCH   1   3
ATOM      3  C   UNL     1      19.971 -24.149   4.010  1.00  0.00    +0.084 C 
ATOM      4  C   UNL     1      21.272 -23.821   3.967  1.00  0.00    +0.017 C 
ENDBRANCH   1   3
BRANCH   1   5
ATOM      5  N   UNL     1      19.533 -22.218   2.745  1.00  0.00    -0.311 N 
ATOM      6  H   UNL     1      20.315 -21.679   3.106  1.00  0.00    +0.170 HD
BRANCH   5   7
ATOM      7  C   UNL     1      19.014 -21.548   1.607  1.00  0.00    +0.060 A 
ATOM      8  C   UNL     1      17.952 -20.635   1.718  1.00  0.00    +0.040 A 
ATOM      9  C   UNL     1      19.490 -21.880   0.318  1.00  0.00    +0.067 A 
ATOM     10  C   UNL     1      17.380 -20.029   0.587  1.00  0.00    +0.058 A 
ATOM     11  S   UNL     1      20.767 -23.100   0.106  1.00  0.00    -0.096 SA
ATOM     12  C   UNL     1      18.930 -21.277  -0.805  1.00  0.00    +0.062 A 
ATOM     13  C   UNL     1      17.873 -20.365  -0.678  1.00  0.00    +0.028 A 
ATOM     14  C   UNL     1      21.443 -22.603  -1.443  1.00  0.00    +0.189 C 
ATOM     15  C   UNL     1      19.429 -21.628  -2.149  1.00  0.00    +0.281 C 
ATOM     16  N   UNL     1      20.743 -21.957  -2.322  1.00  0.00    -0.181 NA
ATOM     17  N   UNL     1      22.778 -22.914  -1.690  1.00  0.00    -0.348 N 
ATOM     18  O   UNL     1      18.647 -21.533  -3.090  1.00  0.00    -0.267 OA
ATOM     19  C   UNL     1      23.366 -22.556  -2.994  1.00  0.00    +0.124 C 
ATOM     20  C   UNL     1      23.489 -24.045  -1.079  1.00  0.00    +0.124 C 
ATOM     21  C   UNL     1      23.198 -23.723  -3.960  1.00  0.00    +0.087 C 
ATOM     22  C   UNL     1      23.320 -25.277  -1.961  1.00  0.00    +0.087 C 
ATOM     23  C   UNL     1      23.822 -24.995  -3.380  1.00  0.00    +0.172 C 
ATOM     24  O   UNL     1      25.257 -24.854  -3.343  1.00  0.00    -0.347 OA
ATOM     25  O   UNL     1      23.483 -26.104  -4.232  1.00  0.00    -0.344 OA
ATOM     26  C   UNL     1      25.733 -25.673  -4.413  1.00  0.00    +0.195 C 
ATOM     27  C   UNL     1      24.717 -26.786  -4.465  1.00  0.00    +0.144 C 
ATOM     28  C   UNL     1      24.676 -27.523  -5.787  1.00  0.00    +0.041 C 
BRANCH  10  29
ATOM     29  C   UNL     1      16.222 -19.070   0.730  1.00  0.00    +0.416 C 
ATOM     30  F   UNL     1      15.223 -19.298  -0.168  1.00  0.00    -0.166 F 
ATOM     31  F   UNL     1      15.637 -19.126   1.957  1.00  0.00    -0.166 F 
ATOM     32  F   UNL     1      16.601 -17.776   0.549  1.00  0.00    -0.166 F 
ENDBRANCH  10  29
ENDBRANCH   5   7
ENDBRANCH   1   5
BRANCH   1  33
ATOM     33  O   UNL     1      17.488 -23.822   3.112  1.00  0.00    -0.311 OA
BRANCH  33  34
ATOM     34  C   UNL     1      17.894 -24.950   2.357  1.00  0.00    +0.167 C 
ATOM     35  C   UNL     1      17.298 -24.845   0.969  1.00  0.00    +0.035 C 
ENDBRANCH  33  34
ENDBRANCH   1  33
TORSDOF 6
ENDMDL
MODEL 6
REMARK VINA RESULT:    -7.414      4.312      5.945
REMARK INTER + INTRA:         -10.867
REMARK INTER:                 -10.074
REMARK INTRA:                  -0.792
REMARK UNBOUND:                -0.852
REMARK SMILES C=CP(=O)(Nc1cc(C(F)(F)F)cc2c(=O)nc(N3CCC4(CC3)OC[C@H](C)O4)sc12)OCC
REMARK SMILES IDX 3 1 4 2 2 3 1 4 5 5 6 7 7 8 31 9 8 10 30 11 14 12 13 13
REMARK SMILES IDX 18 14 15 15 17 16 19 17 16 18 20 19 24 20 21 21 23 22 22 23
REMARK SMILES IDX 25 24 29 25 26 26 27 27 28 28 9 29 10 30 11 31 12 32 32 33
REMARK SMILES IDX 33 34 34 35
REMARK H PARENT 5 6
ROOT
ATOM      1  P   UNL     1      20.610 -22.300  -4.143  1.00  0.00    +0.316 P 
ATOM      2  O   UNL     1      20.450 -23.786  -4.278  1.00  0.00    -0.263 OA
ENDROOT
BRANCH   1   3
ATOM      3  C   UNL     1      22.183 -21.528  -4.031  1.00  0.00    +0.084 C 
ATOM      4  C   UNL     1      23.162 -21.913  -3.197  1.00  0.00    +0.017 C 
ENDBRANCH   1   3
BRANCH   1   5
ATOM      5  N   UNL     1      20.226 -21.564  -2.731  1.00  0.00    -0.311 N 
ATOM      6  H   UNL     1      21.020 -21.293  -2.159  1.00  0.00    +0.170 HD
BRANCH   5   7
ATOM      7  C   UNL     1      19.157 -21.926  -1.871  1.00  0.00    +0.060 A 
ATOM      8  C   UNL     1      17.817 -21.747  -2.254  1.00  0.00    +0.040 A 
ATOM      9  C   UNL     1      19.432 -22.375  -0.558  1.00  0.00    +0.067 A 
ATOM     10  C   UNL     1      16.756 -22.028  -1.378  1.00  0.00    +0.058 A 
ATOM     11  S   UNL     1      21.108 -22.532   0.017  1.00  0.00    -0.096 SA
ATOM     12  C   UNL     1      18.383 -22.660   0.312  1.00  0.00    +0.062 A 
ATOM     13  C   UNL     1      17.051 -22.479  -0.087  1.00  0.00    +0.028 A 
ATOM     14  C   UNL     1      20.907 -23.732   1.290  1.00  0.00    +0.189 C 
ATOM     15  C   UNL     1      18.674 -23.126   1.682  1.00  0.00    +0.281 C 
ATOM     16  N   UNL     1      19.784 -23.885   1.920  1.00  0.00    -0.181 NA
ATOM     17  N   UNL     1      22.004 -24.537   1.592  1.00  0.00    -0.348 N 
ATOM     18  O   UNL     1      17.852 -22.874   2.556  1.00  0.00    -0.267 OA
ATOM     19  C   UNL     1      21.890 -25.521   2.684  1.00  0.00    +0.124 C 
ATOM     20  C   UNL     1      23.402 -24.140   1.378  1.00  0.00    +0.124 C 
ATOM     21  C   UNL     1      22.345 -24.881   3.990  1.00  0.00    +0.087 C 
ATOM     22  C   UNL     1      23.919 -23.435   2.627  1.00  0.00    +0.087 C 
ATOM     23  C   UNL     1      23.769 -24.338   3.854  1.00  0.00    +0.172 C 
ATOM     24  O   UNL     1      24.695 -25.439   3.734  1.00  0.00    -0.347 OA
ATOM     25  O   UNL     1      24.090 -23.585   5.038  1.00  0.00    -0.344 OA
ATOM     26  C   UNL     1      25.346 -25.510   5.004  1.00  0.00    +0.195 C 
ATOM     27  C   UNL     1      25.369 -24.071   5.454  1.00  0.00    +0.144 C 
ATOM     28  C   UNL     1      25.544 -23.894   6.947  1.00  0.00    +0.041 C 
BRANCH  10  29
ATOM     29  C   UNL     1      15.325 -21.802  -1.803  1.00  0.00    +0.416 C 
ATOM     30  F   UNL     1      14.471 -22.758  -1.342  1.00  0.00    -0.166 F 
ATOM     31  F   UNL     1      14.824 -20.615  -1.365  1.00  0.00    -0.166 F 
ATOM     32  F   UNL     1      15.185 -21.796  -3.156  1.00  0.00    -0.166 F 
ENDBRANCH  10  29
ENDBRANCH   5   7
ENDBRANCH   1   5
BRANCH   1  33
ATOM     33  O   UNL     1      19.860 -21.495  -5.329  1.00  0.00    -0.311 OA
BRANCH  33  34
ATOM     34  C   UNL     1      20.597 -21.275  -6.519  1.00  0.00    +0.167 C 
ATOM     35  C   UNL     1      20.496 -22.513  -7.387  1.00  0.00    +0.035 C 
ENDBRANCH  33  34
ENDBRANCH   1  33
TORSDOF 6
ENDMDL
MODEL 7
REMARK VINA RESULT:    -7.202      6.264      9.786
REMARK INTER + INTRA:         -10.580
REMARK INTER:                  -9.552
REMARK INTRA:                  -1.028
REMARK UNBOUND:                -0.852
REMARK SMILES C=CP(=O)(Nc1cc(C(F)(F)F)cc2c(=O)nc(N3CCC4(CC3)OC[C@H](C)O4)sc12)OCC
REMARK SMILES IDX 3 1 4 2 2 3 1 4 5 5 6 7 7 8 31 9 8 10 30 11 14 12 13 13
REMARK SMILES IDX 18 14 15 15 17 16 19 17 16 18 20 19 24 20 21 21 23 22 22 23
REMARK SMILES IDX 25 24 29 25 26 26 27 27 28 28 9 29 10 30 11 31 12 32 32 33
REMARK SMILES IDX 33 34 34 35
REMARK H PARENT 5 6
ROOT
ATOM      1  P   UNL     1      25.065 -23.415  -4.485  1.00  0.00    +0.316 P 
ATOM      2  O   UNL     1      24.482 -24.798  -4.503  1.00  0.00    -0.263 OA
ENDROOT
BRANCH   1   3
ATOM      3  C   UNL     1      26.178 -22.879  -3.238  1.00  0.00    +0.084 C 
ATOM      4  C   UNL     1      25.824 -22.169  -2.155  1.00  0.00    +0.017 C 
ENDBRANCH   1   3
BRANCH   1   5
ATOM      5  N   UNL     1      24.118 -22.137  -4.090  1.00  0.00    -0.311 N 
ATOM      6  H   UNL     1      24.110 -21.899  -3.103  1.00  0.00    +0.170 HD
BRANCH   5   7
ATOM      7  C   UNL     1      22.836 -21.857  -4.630  1.00  0.00    +0.060 A 
ATOM      8  C   UNL     1      22.674 -21.487  -5.975  1.00  0.00    +0.040 A 
ATOM      9  C   UNL     1      21.704 -21.839  -3.781  1.00  0.00    +0.067 A 
ATOM     10  C   UNL     1      21.418 -21.132  -6.496  1.00  0.00    +0.058 A 
ATOM     11  S   UNL     1      21.862 -22.206  -2.048  1.00  0.00    -0.096 SA
ATOM     12  C   UNL     1      20.458 -21.493  -4.294  1.00  0.00    +0.062 A 
ATOM     13  C   UNL     1      20.312 -21.129  -5.640  1.00  0.00    +0.028 A 
ATOM     14  C   UNL     1      20.228 -22.746  -1.676  1.00  0.00    +0.189 C 
ATOM     15  C   UNL     1      19.280 -21.473  -3.404  1.00  0.00    +0.281 C 
ATOM     16  N   UNL     1      19.201 -22.352  -2.362  1.00  0.00    -0.181 NA
ATOM     17  N   UNL     1      20.072 -23.639  -0.617  1.00  0.00    -0.348 N 
ATOM     18  O   UNL     1      18.366 -20.706  -3.687  1.00  0.00    -0.267 OA
ATOM     19  C   UNL     1      18.714 -24.078  -0.246  1.00  0.00    +0.124 C 
ATOM     20  C   UNL     1      20.993 -23.734   0.524  1.00  0.00    +0.124 C 
ATOM     21  C   UNL     1      18.155 -23.140   0.819  1.00  0.00    +0.087 C 
ATOM     22  C   UNL     1      20.532 -22.777   1.618  1.00  0.00    +0.087 C 
ATOM     23  C   UNL     1      19.090 -23.084   2.029  1.00  0.00    +0.172 C 
ATOM     24  O   UNL     1      19.065 -24.352   2.717  1.00  0.00    -0.347 OA
ATOM     25  O   UNL     1      18.624 -22.057   2.923  1.00  0.00    -0.344 OA
ATOM     26  C   UNL     1      18.292 -24.113   3.896  1.00  0.00    +0.195 C 
ATOM     27  C   UNL     1      18.597 -22.670   4.214  1.00  0.00    +0.144 C 
ATOM     28  C   UNL     1      17.565 -22.003   5.098  1.00  0.00    +0.041 C 
BRANCH  10  29
ATOM     29  C   UNL     1      21.273 -20.712  -7.939  1.00  0.00    +0.416 C 
ATOM     30  F   UNL     1      22.097 -19.684  -8.284  1.00  0.00    -0.166 F 
ATOM     31  F   UNL     1      21.550 -21.718  -8.813  1.00  0.00    -0.166 F 
ATOM     32  F   UNL     1      20.011 -20.296  -8.229  1.00  0.00    -0.166 F 
ENDBRANCH  10  29
ENDBRANCH   5   7
ENDBRANCH   1   5
BRANCH   1  33
ATOM     33  O   UNL     1      25.818 -23.051  -5.869  1.00  0.00    -0.311 OA
BRANCH  33  34
ATOM     34  C   UNL     1      26.625 -21.885  -5.871  1.00  0.00    +0.167 C 
ATOM     35  C   UNL     1      26.168 -20.981  -6.997  1.00  0.00    +0.035 C 
ENDBRANCH  33  34
ENDBRANCH   1  33
TORSDOF 6
ENDMDL
MODEL 8
REMARK VINA RESULT:    -7.111      4.411      5.968
REMARK INTER + INTRA:         -10.457
REMARK INTER:                  -9.709
REMARK INTRA:                  -0.749
REMARK UNBOUND:                -0.852
REMARK SMILES C=CP(=O)(Nc1cc(C(F)(F)F)cc2c(=O)nc(N3CCC4(CC3)OC[C@H](C)O4)sc12)OCC
REMARK SMILES IDX 3 1 4 2 2 3 1 4 5 5 6 7 7 8 31 9 8 10 30 11 14 12 13 13
REMARK SMILES IDX 18 14 15 15 17 16 19 17 16 18 20 19 24 20 21 21 23 22 22 23
REMARK SMILES IDX 25 24 29 25 26 26 27 27 28 28 9 29 10 30 11 31 12 32 32 33
REMARK SMILES IDX 33 34 34 35
REMARK H PARENT 5 6
ROOT
ATOM      1  P   UNL     1      17.407 -21.302   1.424  1.00  0.00    +0.316 P 
ATOM      2  O   UNL     1      18.204 -20.084   1.786  1.00  0.00    -0.263 OA
ENDROOT
BRANCH   1   3
ATOM      3  C   UNL     1      16.620 -22.306   2.631  1.00  0.00    +0.084 C 
ATOM      4  C   UNL     1      16.182 -21.864   3.820  1.00  0.00    +0.017 C 
ENDBRANCH   1   3
BRANCH   1   5
ATOM      5  N   UNL     1      18.175 -22.653   0.904  1.00  0.00    -0.311 N 
ATOM      6  H   UNL     1      17.626 -23.506   0.959  1.00  0.00    +0.170 HD
BRANCH   5   7
ATOM      7  C   UNL     1      19.535 -22.979   1.145  1.00  0.00    +0.060 A 
ATOM      8  C   UNL     1      19.992 -23.298   2.435  1.00  0.00    +0.040 A 
ATOM      9  C   UNL     1      20.479 -22.875   0.097  1.00  0.00    +0.067 A 
ATOM     10  C   UNL     1      21.351 -23.543   2.695  1.00  0.00    +0.058 A 
ATOM     11  S   UNL     1      19.975 -22.382  -1.535  1.00  0.00    -0.096 SA
ATOM     12  C   UNL     1      21.825 -23.122   0.350  1.00  0.00    +0.062 A 
ATOM     13  C   UNL     1      22.266 -23.444   1.641  1.00  0.00    +0.028 A 
ATOM     14  C   UNL     1      21.259 -23.098  -2.506  1.00  0.00    +0.189 C 
ATOM     15  C   UNL     1      22.808 -23.011  -0.746  1.00  0.00    +0.281 C 
ATOM     16  N   UNL     1      22.440 -23.325  -2.023  1.00  0.00    -0.181 NA
ATOM     17  N   UNL     1      20.955 -23.435  -3.823  1.00  0.00    -0.348 N 
ATOM     18  O   UNL     1      23.960 -22.710  -0.450  1.00  0.00    -0.267 OA
ATOM     19  C   UNL     1      22.016 -23.993  -4.681  1.00  0.00    +0.124 C 
ATOM     20  C   UNL     1      19.914 -22.777  -4.625  1.00  0.00    +0.124 C 
ATOM     21  C   UNL     1      22.716 -22.859  -5.420  1.00  0.00    +0.087 C 
ATOM     22  C   UNL     1      20.525 -21.587  -5.356  1.00  0.00    +0.087 C 
ATOM     23  C   UNL     1      21.705 -22.035  -6.221  1.00  0.00    +0.172 C 
ATOM     24  O   UNL     1      21.201 -22.826  -7.318  1.00  0.00    -0.347 OA
ATOM     25  O   UNL     1      22.373 -20.875  -6.751  1.00  0.00    -0.344 OA
ATOM     26  C   UNL     1      21.844 -22.295  -8.479  1.00  0.00    +0.195 C 
ATOM     27  C   UNL     1      22.015 -20.837  -8.134  1.00  0.00    +0.144 C 
ATOM     28  C   UNL     1      23.085 -20.135  -8.941  1.00  0.00    +0.041 C 
BRANCH  10  29
ATOM     29  C   UNL     1      21.822 -23.860   4.094  1.00  0.00    +0.416 C 
ATOM     30  F   UNL     1      22.979 -23.222   4.427  1.00  0.00    -0.166 F 
ATOM     31  F   UNL     1      20.918 -23.510   5.049  1.00  0.00    -0.166 F 
ATOM     32  F   UNL     1      22.062 -25.187   4.268  1.00  0.00    -0.166 F 
ENDBRANCH  10  29
ENDBRANCH   5   7
ENDBRANCH   1   5
BRANCH   1  33
ATOM     33  O   UNL     1      16.234 -20.972   0.361  1.00  0.00    -0.311 OA
BRANCH  33  34
ATOM     34  C   UNL     1      16.593 -20.976  -1.011  1.00  0.00    +0.167 C 
ATOM     35  C   UNL     1      15.420 -21.496  -1.817  1.00  0.00    +0.035 C 
ENDBRANCH  33  34
ENDBRANCH   1  33
TORSDOF 6
ENDMDL
MODEL 9
REMARK VINA RESULT:    -7.046      5.519      9.551
REMARK INTER + INTRA:         -10.370
REMARK INTER:                  -9.472
REMARK INTRA:                  -0.898
REMARK UNBOUND:                -0.852
REMARK SMILES C=CP(=O)(Nc1cc(C(F)(F)F)cc2c(=O)nc(N3CCC4(CC3)OC[C@H](C)O4)sc12)OCC
REMARK SMILES IDX 3 1 4 2 2 3 1 4 5 5 6 7 7 8 31 9 8 10 30 11 14 12 13 13
REMARK SMILES IDX 18 14 15 15 17 16 19 17 16 18 20 19 24 20 21 21 23 22 22 23
REMARK SMILES IDX 25 24 29 25 26 26 27 27 28 28 9 29 10 30 11 31 12 32 32 33
REMARK SMILES IDX 33 34 34 35
REMARK H PARENT 5 6
ROOT
ATOM      1  P   UNL     1      24.469 -22.794  -1.754  1.00  0.00    +0.316 P 
ATOM      2  O   UNL     1      24.641 -21.338  -2.071  1.00  0.00    -0.263 OA
ENDROOT
BRANCH   1   3
ATOM      3  C   UNL     1      25.471 -24.041  -2.478  1.00  0.00    +0.084 C 
ATOM      4  C   UNL     1      26.140 -23.904  -3.633  1.00  0.00    +0.017 C 
ENDBRANCH   1   3
BRANCH   1   5
ATOM      5  N   UNL     1      23.167 -23.606  -2.329  1.00  0.00    -0.311 N 
ATOM      6  H   UNL     1      23.347 -24.568  -2.600  1.00  0.00    +0.170 HD
BRANCH   5   7
ATOM      7  C   UNL     1      22.175 -23.075  -3.194  1.00  0.00    +0.060 A 
ATOM      8  C   UNL     1      22.389 -22.976  -4.579  1.00  0.00    +0.040 A 
ATOM      9  C   UNL     1      20.988 -22.529  -2.651  1.00  0.00    +0.067 A 
ATOM     10  C   UNL     1      21.444 -22.379  -5.430  1.00  0.00    +0.058 A 
ATOM     11  S   UNL     1      20.703 -22.538  -0.895  1.00  0.00    -0.096 SA
ATOM     12  C   UNL     1      20.048 -21.941  -3.492  1.00  0.00    +0.062 A 
ATOM     13  C   UNL     1      20.274 -21.853  -4.872  1.00  0.00    +0.028 A 
ATOM     14  C   UNL     1      18.945 -22.461  -0.848  1.00  0.00    +0.189 C 
ATOM     15  C   UNL     1      18.812 -21.370  -2.921  1.00  0.00    +0.281 C 
ATOM     16  N   UNL     1      18.253 -21.933  -1.809  1.00  0.00    -0.181 NA
ATOM     17  N   UNL     1      18.308 -23.009   0.264  1.00  0.00    -0.348 N 
ATOM     18  O   UNL     1      18.281 -20.443  -3.523  1.00  0.00    -0.267 OA
ATOM     19  C   UNL     1      16.840 -22.923   0.362  1.00  0.00    +0.124 C 
ATOM     20  C   UNL     1      18.924 -23.128   1.592  1.00  0.00    +0.124 C 
ATOM     21  C   UNL     1      16.459 -21.651   1.112  1.00  0.00    +0.087 C 
ATOM     22  C   UNL     1      18.636 -21.862   2.391  1.00  0.00    +0.087 C 
ATOM     23  C   UNL     1      17.128 -21.618   2.488  1.00  0.00    +0.172 C 
ATOM     24  O   UNL     1      16.548 -22.636   3.331  1.00  0.00    -0.347 OA
ATOM     25  O   UNL     1      16.894 -20.329   3.083  1.00  0.00    -0.344 OA
ATOM     26  C   UNL     1      15.711 -21.922   4.243  1.00  0.00    +0.195 C 
ATOM     27  C   UNL     1      16.432 -20.607   4.407  1.00  0.00    +0.144 C 
ATOM     28  C   UNL     1      15.554 -19.482   4.911  1.00  0.00    +0.041 C 
BRANCH  10  29
ATOM     29  C   UNL     1      21.708 -22.261  -6.912  1.00  0.00    +0.416 C 
ATOM     30  F   UNL     1      20.821 -22.962  -7.672  1.00  0.00    -0.166 F 
ATOM     31  F   UNL     1      21.648 -20.978  -7.360  1.00  0.00    -0.166 F 
ATOM     32  F   UNL     1      22.942 -22.723  -7.253  1.00  0.00    -0.166 F 
ENDBRANCH  10  29
ENDBRANCH   5   7
ENDBRANCH   1   5
BRANCH   1  33
ATOM     33  O   UNL     1      24.560 -23.089  -0.166  1.00  0.00    -0.311 OA
BRANCH  33  34
ATOM     34  C   UNL     1      24.739 -21.970   0.685  1.00  0.00    +0.167 C 
ATOM     35  C   UNL     1      23.675 -22.005   1.763  1.00  0.00    +0.035 C 
ENDBRANCH  33  34
ENDBRANCH   1  33
TORSDOF 6
ENDMDL
