MODEL 1
REMARK VINA RESULT:    -8.858      0.000      0.000
REMARK INTER + INTRA:         -12.774
REMARK INTER:                 -11.966
REMARK INTRA:                  -0.809
REMARK UNBOUND:                -0.809
REMARK SMILES COC(=O)NC(=O)c1ccsc1NC(=O)c1ccc(S(=O)(=O)N2CCCCC2)cc1
REMARK SMILES IDX 8 1 9 2 10 3 11 4 12 5 6 6 3 7 4 8 5 9 7 10 2 12 1 13 13 14
REMARK SMILES IDX 14 15 15 16 16 18 17 19 30 20 18 21 29 22 19 23 20 24 21 25
REMARK SMILES IDX 22 26 23 27 24 28 28 29 25 30 27 31 26 32
REMARK H PARENT 5 11 13 17
ROOT
ATOM      1  C   UNL     1      13.897 -17.856   5.206  1.00  0.00    +0.075 A 
ATOM      2  C   UNL     1      12.836 -17.065   5.779  1.00  0.00    +0.028 A 
ATOM      3  C   UNL     1      12.068 -16.433   4.826  1.00  0.00    +0.068 A 
ATOM      4  S   UNL     1      12.602 -16.784   3.249  1.00  0.00    -0.126 S 
ATOM      5  C   UNL     1      13.861 -17.769   3.815  1.00  0.00    +0.108 A 
ENDROOT
BRANCH   1   6
ATOM      6  C   UNL     1      14.909 -18.670   5.904  1.00  0.00    +0.263 C 
ATOM      7  C   UNL     1      15.847 -20.912   5.990  1.00  0.00    +0.413 C 
ATOM      8  O   UNL     1      16.683 -20.766   6.867  1.00  0.00    -0.224 OA
ATOM      9  N   UNL     1      14.998 -19.975   5.479  1.00  0.00    -0.257 N 
ATOM     10  O   UNL     1      15.598 -18.178   6.794  1.00  0.00    -0.269 OA
ATOM     11  H   UNL     1      14.390 -20.327   4.763  1.00  0.00    +0.176 HD
BRANCH   7  12
ATOM     12  O   UNL     1      15.615 -22.085   5.340  1.00  0.00    -0.453 OA
ATOM     13  C   UNL     1      16.506 -22.332   4.249  1.00  0.00    +0.284 C 
ENDBRANCH   7  12
ENDBRANCH   1   6
BRANCH   5  14
ATOM     14  N   UNL     1      14.729 -18.414   2.945  1.00  0.00    -0.313 N 
ATOM     15  C   UNL     1      15.254 -17.930   1.763  1.00  0.00    +0.256 C 
ATOM     16  O   UNL     1      15.117 -16.811   1.286  1.00  0.00    -0.269 OA
ATOM     17  H   UNL     1      15.036 -19.328   3.274  1.00  0.00    +0.171 HD
BRANCH  15  18
ATOM     18  C   UNL     1      16.123 -18.900   1.028  1.00  0.00    +0.040 A 
ATOM     19  C   UNL     1      17.136 -19.630   1.668  1.00  0.00    +0.015 A 
ATOM     20  C   UNL     1      15.884 -19.102  -0.341  1.00  0.00    +0.015 A 
ATOM     21  C   UNL     1      17.927 -20.523   0.939  1.00  0.00    +0.022 A 
ATOM     22  C   UNL     1      16.673 -19.994  -1.072  1.00  0.00    +0.022 A 
ATOM     23  C   UNL     1      17.710 -20.680  -0.433  1.00  0.00    +0.082 A 
BRANCH  23  24
ATOM     24  S   UNL     1      18.705 -21.836  -1.360  1.00  0.00    +0.243 S 
ATOM     25  O   UNL     1      18.286 -21.753  -2.743  1.00  0.00    -0.207 OA
ATOM     26  O   UNL     1      20.085 -21.618  -0.980  1.00  0.00    -0.207 OA
BRANCH  24  27
ATOM     27  N   UNL     1      18.215 -23.339  -0.743  1.00  0.00    -0.198 NA
ATOM     28  C   UNL     1      19.136 -24.020   0.197  1.00  0.00    +0.102 C 
ATOM     29  C   UNL     1      16.766 -23.572  -0.531  1.00  0.00    +0.102 C 
ATOM     30  C   UNL     1      18.557 -25.366   0.615  1.00  0.00    +0.017 C 
ATOM     31  C   UNL     1      16.474 -23.943   0.917  1.00  0.00    +0.017 C 
ATOM     32  C   UNL     1      17.224 -25.204   1.343  1.00  0.00    +0.003 C 
ENDBRANCH  24  27
ENDBRANCH  23  24
ENDBRANCH  15  18
ENDBRANCH   5  14
TORSDOF 6
ENDMDL
MODEL 2
REMARK VINA RESULT:    -8.593      0.916      1.738
REMARK INTER + INTRA:         -12.415
REMARK INTER:                 -11.792
REMARK INTRA:                  -0.623
REMARK UNBOUND:                -0.809
REMARK SMILES COC(=O)NC(=O)c1ccsc1NC(=O)c1ccc(S(=O)(=O)N2CCCCC2)cc1
REMARK SMILES IDX 8 1 9 2 10 3 11 4 12 5 6 6 3 7 4 8 5 9 7 10 2 12 1 13 13 14
REMARK SMILES IDX 14 15 15 16 16 18 17 19 30 20 18 21 29 22 19 23 20 24 21 25
REMARK SMILES IDX 22 26 23 27 24 28 28 29 25 30 27 31 26 32
REMARK H PARENT 5 11 13 17
ROOT
ATOM      1  C   UNL     1      14.255 -18.065   5.135  1.00  0.00    +0.075 A 
ATOM      2  C   UNL     1      13.222 -17.329   5.822  1.00  0.00    +0.028 A 
ATOM      3  C   UNL     1      12.349 -16.705   4.958  1.00  0.00    +0.068 A 
ATOM      4  S   UNL     1      12.751 -16.997   3.331  1.00  0.00    -0.126 S 
ATOM      5  C   UNL     1      14.090 -17.947   3.756  1.00  0.00    +0.108 A 
ENDROOT
BRANCH   1   6
ATOM      6  C   UNL     1      15.354 -18.857   5.717  1.00  0.00    +0.263 C 
ATOM      7  C   UNL     1      16.378 -21.062   5.655  1.00  0.00    +0.413 C 
ATOM      8  O   UNL     1      17.282 -20.907   6.460  1.00  0.00    -0.224 OA
ATOM      9  N   UNL     1      15.453 -20.147   5.248  1.00  0.00    -0.257 N 
ATOM     10  O   UNL     1      16.101 -18.361   6.557  1.00  0.00    -0.269 OA
ATOM     11  H   UNL     1      14.797 -20.503   4.579  1.00  0.00    +0.176 HD
BRANCH   7  12
ATOM     12  O   UNL     1      16.133 -22.226   4.995  1.00  0.00    -0.453 OA
ATOM     13  C   UNL     1      17.148 -22.587   4.055  1.00  0.00    +0.284 C 
ENDBRANCH   7  12
ENDBRANCH   1   6
BRANCH   5  14
ATOM     14  N   UNL     1      14.898 -18.538   2.794  1.00  0.00    -0.313 N 
ATOM     15  C   UNL     1      15.364 -17.978   1.622  1.00  0.00    +0.256 C 
ATOM     16  O   UNL     1      15.217 -16.826   1.234  1.00  0.00    -0.269 OA
ATOM     17  H   UNL     1      15.209 -19.478   3.040  1.00  0.00    +0.171 HD
BRANCH  15  18
ATOM     18  C   UNL     1      16.176 -18.903   0.771  1.00  0.00    +0.040 A 
ATOM     19  C   UNL     1      16.014 -18.973  -0.621  1.00  0.00    +0.015 A 
ATOM     20  C   UNL     1      17.151 -19.696   1.396  1.00  0.00    +0.015 A 
ATOM     21  C   UNL     1      16.794 -19.855  -1.375  1.00  0.00    +0.022 A 
ATOM     22  C   UNL     1      17.931 -20.579   0.645  1.00  0.00    +0.022 A 
ATOM     23  C   UNL     1      17.729 -20.674  -0.735  1.00  0.00    +0.082 A 
BRANCH  23  24
ATOM     24  S   UNL     1      18.739 -21.785  -1.700  1.00  0.00    +0.243 S 
ATOM     25  O   UNL     1      17.847 -22.571  -2.526  1.00  0.00    -0.207 OA
ATOM     26  O   UNL     1      19.805 -21.000  -2.285  1.00  0.00    -0.207 OA
BRANCH  24  27
ATOM     27  N   UNL     1      19.414 -22.805  -0.524  1.00  0.00    -0.198 NA
ATOM     28  C   UNL     1      18.633 -24.001  -0.134  1.00  0.00    +0.102 C 
ATOM     29  C   UNL     1      20.890 -22.936  -0.473  1.00  0.00    +0.102 C 
ATOM     30  C   UNL     1      19.367 -24.775   0.955  1.00  0.00    +0.017 C 
ATOM     31  C   UNL     1      21.319 -24.389  -0.625  1.00  0.00    +0.017 C 
ATOM     32  C   UNL     1      20.727 -25.274   0.471  1.00  0.00    +0.003 C 
ENDBRANCH  24  27
ENDBRANCH  23  24
ENDBRANCH  15  18
ENDBRANCH   5  14
TORSDOF 6
ENDMDL
MODEL 3
REMARK VINA RESULT:    -8.431      2.344      4.396
REMARK INTER + INTRA:         -12.197
REMARK INTER:                 -11.591
REMARK INTRA:                  -0.606
REMARK UNBOUND:                -0.809
REMARK SMILES COC(=O)NC(=O)c1ccsc1NC(=O)c1ccc(S(=O)(=O)N2CCCCC2)cc1
REMARK SMILES IDX 8 1 9 2 10 3 11 4 12 5 6 6 3 7 4 8 5 9 7 10 2 12 1 13 13 14
REMARK SMILES IDX 14 15 15 16 16 18 17 19 30 20 18 21 29 22 19 23 20 24 21 25
REMARK SMILES IDX 22 26 23 27 24 28 28 29 25 30 27 31 26 32
REMARK H PARENT 5 11 13 17
ROOT
ATOM      1  C   UNL     1      13.733 -17.560   3.575  1.00  0.00    +0.075 A 
ATOM      2  C   UNL     1      12.739 -16.661   4.107  1.00  0.00    +0.028 A 
ATOM      3  C   UNL     1      12.256 -17.066   5.332  1.00  0.00    +0.068 A 
ATOM      4  S   UNL     1      12.987 -18.510   5.855  1.00  0.00    -0.126 S 
ATOM      5  C   UNL     1      13.945 -18.617   4.458  1.00  0.00    +0.108 A 
ENDROOT
BRANCH   1   6
ATOM      6  C   UNL     1      14.473 -17.456   2.303  1.00  0.00    +0.263 C 
ATOM      7  C   UNL     1      15.856 -18.743   0.772  1.00  0.00    +0.413 C 
ATOM      8  O   UNL     1      16.078 -17.901  -0.083  1.00  0.00    -0.224 OA
ATOM      9  N   UNL     1      15.104 -18.611   1.902  1.00  0.00    -0.257 N 
ATOM     10  O   UNL     1      14.497 -16.396   1.683  1.00  0.00    -0.269 OA
ATOM     11  H   UNL     1      15.068 -19.440   2.465  1.00  0.00    +0.176 HD
BRANCH   7  12
ATOM     12  O   UNL     1      16.340 -20.014   0.739  1.00  0.00    -0.453 OA
ATOM     13  C   UNL     1      16.216 -20.651  -0.535  1.00  0.00    +0.284 C 
ENDBRANCH   7  12
ENDBRANCH   1   6
BRANCH   5  14
ATOM     14  N   UNL     1      14.842 -19.659   4.269  1.00  0.00    -0.313 N 
ATOM     15  C   UNL     1      15.835 -20.086   5.128  1.00  0.00    +0.256 C 
ATOM     16  O   UNL     1      16.072 -19.678   6.259  1.00  0.00    -0.269 OA
ATOM     17  H   UNL     1      14.688 -20.183   3.408  1.00  0.00    +0.171 HD
BRANCH  15  18
ATOM     18  C   UNL     1      16.670 -21.209   4.602  1.00  0.00    +0.040 A 
ATOM     19  C   UNL     1      17.847 -21.627   5.241  1.00  0.00    +0.015 A 
ATOM     20  C   UNL     1      16.233 -21.880   3.449  1.00  0.00    +0.015 A 
ATOM     21  C   UNL     1      18.599 -22.680   4.711  1.00  0.00    +0.022 A 
ATOM     22  C   UNL     1      16.982 -22.932   2.917  1.00  0.00    +0.022 A 
ATOM     23  C   UNL     1      18.177 -23.310   3.536  1.00  0.00    +0.082 A 
BRANCH  23  24
ATOM     24  S   UNL     1      19.125 -24.668   2.871  1.00  0.00    +0.243 S 
ATOM     25  O   UNL     1      20.212 -24.926   3.791  1.00  0.00    -0.207 OA
ATOM     26  O   UNL     1      18.188 -25.709   2.507  1.00  0.00    -0.207 OA
BRANCH  24  27
ATOM     27  N   UNL     1      19.775 -24.016   1.445  1.00  0.00    -0.198 NA
ATOM     28  C   UNL     1      19.142 -24.414   0.167  1.00  0.00    +0.102 C 
ATOM     29  C   UNL     1      20.352 -22.651   1.498  1.00  0.00    +0.102 C 
ATOM     30  C   UNL     1      19.875 -23.770  -1.004  1.00  0.00    +0.017 C 
ATOM     31  C   UNL     1      19.675 -21.728   0.494  1.00  0.00    +0.017 C 
ATOM     32  C   UNL     1      19.813 -22.245  -0.937  1.00  0.00    +0.003 C 
ENDBRANCH  24  27
ENDBRANCH  23  24
ENDBRANCH  15  18
ENDBRANCH   5  14
TORSDOF 6
ENDMDL
MODEL 4
REMARK VINA RESULT:    -8.336      3.285      5.092
REMARK INTER + INTRA:         -12.069
REMARK INTER:                 -11.136
REMARK INTRA:                  -0.933
REMARK UNBOUND:                -0.809
REMARK SMILES COC(=O)NC(=O)c1ccsc1NC(=O)c1ccc(S(=O)(=O)N2CCCCC2)cc1
REMARK SMILES IDX 8 1 9 2 10 3 11 4 12 5 6 6 3 7 4 8 5 9 7 10 2 12 1 13 13 14
REMARK SMILES IDX 14 15 15 16 16 18 17 19 30 20 18 21 29 22 19 23 20 24 21 25
REMARK SMILES IDX 22 26 23 27 24 28 28 29 25 30 27 31 26 32
REMARK H PARENT 5 11 13 17
ROOT
ATOM      1  C   UNL     1      15.732 -19.943   4.174  1.00  0.00    +0.075 A 
ATOM      2  C   UNL     1      15.374 -20.070   5.566  1.00  0.00    +0.028 A 
ATOM      3  C   UNL     1      15.878 -21.215   6.143  1.00  0.00    +0.068 A 
ATOM      4  S   UNL     1      16.781 -22.137   5.035  1.00  0.00    -0.126 S 
ATOM      5  C   UNL     1      16.506 -21.032   3.778  1.00  0.00    +0.108 A 
ENDROOT
BRANCH   1   6
ATOM      6  C   UNL     1      15.384 -18.860   3.236  1.00  0.00    +0.263 C 
ATOM      7  C   UNL     1      13.737 -17.115   2.839  1.00  0.00    +0.413 C 
ATOM      8  O   UNL     1      14.178 -16.627   1.812  1.00  0.00    -0.224 OA
ATOM      9  N   UNL     1      14.255 -18.146   3.566  1.00  0.00    -0.257 N 
ATOM     10  O   UNL     1      16.078 -18.648   2.245  1.00  0.00    -0.269 OA
ATOM     11  H   UNL     1      13.715 -18.383   4.377  1.00  0.00    +0.176 HD
BRANCH   7  12
ATOM     12  O   UNL     1      12.605 -16.691   3.464  1.00  0.00    -0.453 OA
ATOM     13  C   UNL     1      12.598 -16.921   4.875  1.00  0.00    +0.284 C 
ENDBRANCH   7  12
ENDBRANCH   1   6
BRANCH   5  14
ATOM     14  N   UNL     1      17.033 -21.227   2.509  1.00  0.00    -0.313 N 
ATOM     15  C   UNL     1      16.849 -22.312   1.675  1.00  0.00    +0.256 C 
ATOM     16  O   UNL     1      16.126 -23.283   1.860  1.00  0.00    -0.269 OA
ATOM     17  H   UNL     1      17.570 -20.434   2.160  1.00  0.00    +0.171 HD
BRANCH  15  18
ATOM     18  C   UNL     1      17.601 -22.238   0.384  1.00  0.00    +0.040 A 
ATOM     19  C   UNL     1      18.817 -21.548   0.267  1.00  0.00    +0.015 A 
ATOM     20  C   UNL     1      17.079 -22.915  -0.729  1.00  0.00    +0.015 A 
ATOM     21  C   UNL     1      19.484 -21.503  -0.961  1.00  0.00    +0.022 A 
ATOM     22  C   UNL     1      17.743 -22.871  -1.958  1.00  0.00    +0.022 A 
ATOM     23  C   UNL     1      18.930 -22.141  -2.074  1.00  0.00    +0.082 A 
BRANCH  23  24
ATOM     24  S   UNL     1      19.791 -22.102  -3.637  1.00  0.00    +0.243 S 
ATOM     25  O   UNL     1      19.555 -23.371  -4.292  1.00  0.00    -0.207 OA
ATOM     26  O   UNL     1      19.455 -20.851  -4.283  1.00  0.00    -0.207 OA
BRANCH  24  27
ATOM     27  N   UNL     1      21.421 -22.038  -3.171  1.00  0.00    -0.198 NA
ATOM     28  C   UNL     1      22.000 -23.255  -2.556  1.00  0.00    +0.102 C 
ATOM     29  C   UNL     1      22.347 -21.200  -3.971  1.00  0.00    +0.102 C 
ATOM     30  C   UNL     1      23.452 -23.005  -2.166  1.00  0.00    +0.017 C 
ATOM     31  C   UNL     1      23.510 -22.023  -4.508  1.00  0.00    +0.017 C 
ATOM     32  C   UNL     1      24.313 -22.674  -3.383  1.00  0.00    +0.003 C 
ENDBRANCH  24  27
ENDBRANCH  23  24
ENDBRANCH  15  18
ENDBRANCH   5  14
TORSDOF 6
ENDMDL
MODEL 5
REMARK VINA RESULT:    -8.319      3.806      5.765
REMARK INTER + INTRA:         -12.045
REMARK INTER:                 -11.098
REMARK INTRA:                  -0.947
REMARK UNBOUND:                -0.809
REMARK SMILES COC(=O)NC(=O)c1ccsc1NC(=O)c1ccc(S(=O)(=O)N2CCCCC2)cc1
REMARK SMILES IDX 8 1 9 2 10 3 11 4 12 5 6 6 3 7 4 8 5 9 7 10 2 12 1 13 13 14
REMARK SMILES IDX 14 15 15 16 16 18 17 19 30 20 18 21 29 22 19 23 20 24 21 25
REMARK SMILES IDX 22 26 23 27 24 28 28 29 25 30 27 31 26 32
REMARK H PARENT 5 11 13 17
ROOT
ATOM      1  C   UNL     1      16.196 -20.264   3.402  1.00  0.00    +0.075 A 
ATOM      2  C   UNL     1      15.595 -20.437   4.702  1.00  0.00    +0.028 A 
ATOM      3  C   UNL     1      15.991 -21.603   5.320  1.00  0.00    +0.068 A 
ATOM      4  S   UNL     1      17.080 -22.490   4.360  1.00  0.00    -0.126 S 
ATOM      5  C   UNL     1      17.031 -21.341   3.114  1.00  0.00    +0.108 A 
ENDROOT
BRANCH   1   6
ATOM      6  C   UNL     1      16.018 -19.148   2.455  1.00  0.00    +0.263 C 
ATOM      7  C   UNL     1      14.610 -17.218   2.000  1.00  0.00    +0.413 C 
ATOM      8  O   UNL     1      15.147 -16.787   0.992  1.00  0.00    -0.224 OA
ATOM      9  N   UNL     1      14.971 -18.303   2.743  1.00  0.00    -0.257 N 
ATOM     10  O   UNL     1      16.771 -19.022   1.493  1.00  0.00    -0.269 OA
ATOM     11  H   UNL     1      14.374 -18.472   3.531  1.00  0.00    +0.176 HD
BRANCH   7  12
ATOM     12  O   UNL     1      13.513 -16.660   2.581  1.00  0.00    -0.453 OA
ATOM     13  C   UNL     1      13.281 -17.093   3.924  1.00  0.00    +0.284 C 
ENDBRANCH   7  12
ENDBRANCH   1   6
BRANCH   5  14
ATOM     14  N   UNL     1      17.777 -21.494   1.953  1.00  0.00    -0.313 N 
ATOM     15  C   UNL     1      17.442 -22.210   0.821  1.00  0.00    +0.256 C 
ATOM     16  O   UNL     1      16.389 -22.792   0.589  1.00  0.00    -0.269 OA
ATOM     17  H   UNL     1      18.644 -20.958   1.948  1.00  0.00    +0.171 HD
BRANCH  15  18
ATOM     18  C   UNL     1      18.493 -22.219  -0.242  1.00  0.00    +0.040 A 
ATOM     19  C   UNL     1      18.343 -21.516  -1.447  1.00  0.00    +0.015 A 
ATOM     20  C   UNL     1      19.678 -22.931   0.001  1.00  0.00    +0.015 A 
ATOM     21  C   UNL     1      19.352 -21.556  -2.414  1.00  0.00    +0.022 A 
ATOM     22  C   UNL     1      20.688 -22.974  -0.964  1.00  0.00    +0.022 A 
ATOM     23  C   UNL     1      20.508 -22.307  -2.180  1.00  0.00    +0.082 A 
BRANCH  23  24
ATOM     24  S   UNL     1      21.804 -22.341  -3.405  1.00  0.00    +0.243 S 
ATOM     25  O   UNL     1      22.702 -21.244  -3.114  1.00  0.00    -0.207 OA
ATOM     26  O   UNL     1      22.287 -23.703  -3.484  1.00  0.00    -0.207 OA
BRANCH  24  27
ATOM     27  N   UNL     1      20.978 -21.986  -4.844  1.00  0.00    -0.198 NA
ATOM     28  C   UNL     1      21.592 -20.990  -5.752  1.00  0.00    +0.102 C 
ATOM     29  C   UNL     1      20.192 -23.068  -5.487  1.00  0.00    +0.102 C 
ATOM     30  C   UNL     1      20.699 -20.767  -6.967  1.00  0.00    +0.017 C 
ATOM     31  C   UNL     1      20.654 -23.307  -6.918  1.00  0.00    +0.017 C 
ATOM     32  C   UNL     1      20.520 -22.050  -7.776  1.00  0.00    +0.003 C 
ENDBRANCH  24  27
ENDBRANCH  23  24
ENDBRANCH  15  18
ENDBRANCH   5  14
TORSDOF 6
ENDMDL
MODEL 6
REMARK VINA RESULT:    -8.310      3.622      5.517
REMARK INTER + INTRA:         -12.033
REMARK INTER:                 -11.622
REMARK INTRA:                  -0.411
REMARK UNBOUND:                -0.809
REMARK SMILES COC(=O)NC(=O)c1ccsc1NC(=O)c1ccc(S(=O)(=O)N2CCCCC2)cc1
REMARK SMILES IDX 8 1 9 2 10 3 11 4 12 5 6 6 3 7 4 8 5 9 7 10 2 12 1 13 13 14
REMARK SMILES IDX 14 15 15 16 16 18 17 19 30 20 18 21 29 22 19 23 20 24 21 25
REMARK SMILES IDX 22 26 23 27 24 28 28 29 25 30 27 31 26 32
REMARK H PARENT 5 11 13 17
ROOT
ATOM      1  C   UNL     1      14.685 -18.096   2.730  1.00  0.00    +0.075 A 
ATOM      2  C   UNL     1      13.617 -17.266   3.228  1.00  0.00    +0.028 A 
ATOM      3  C   UNL     1      13.242 -17.593   4.512  1.00  0.00    +0.068 A 
ATOM      4  S   UNL     1      14.163 -18.884   5.131  1.00  0.00    -0.126 S 
ATOM      5  C   UNL     1      15.061 -19.025   3.699  1.00  0.00    +0.108 A 
ENDROOT
BRANCH   1   6
ATOM      6  C   UNL     1      15.347 -18.041   1.413  1.00  0.00    +0.263 C 
ATOM      7  C   UNL     1      16.163 -19.455  -0.389  1.00  0.00    +0.413 C 
ATOM      8  O   UNL     1      16.593 -18.608  -1.155  1.00  0.00    -0.224 OA
ATOM      9  N   UNL     1      15.556 -19.263   0.817  1.00  0.00    -0.257 N 
ATOM     10  O   UNL     1      15.673 -16.962   0.925  1.00  0.00    -0.269 OA
ATOM     11  H   UNL     1      15.289 -20.114   1.276  1.00  0.00    +0.176 HD
BRANCH   7  12
ATOM     12  O   UNL     1      16.216 -20.795  -0.622  1.00  0.00    -0.453 OA
ATOM     13  C   UNL     1      15.356 -21.236  -1.677  1.00  0.00    +0.284 C 
ENDBRANCH   7  12
ENDBRANCH   1   6
BRANCH   5  14
ATOM     14  N   UNL     1      16.067 -19.972   3.560  1.00  0.00    -0.313 N 
ATOM     15  C   UNL     1      16.071 -21.273   4.021  1.00  0.00    +0.256 C 
ATOM     16  O   UNL     1      15.160 -21.872   4.579  1.00  0.00    -0.269 OA
ATOM     17  H   UNL     1      16.857 -19.653   3.001  1.00  0.00    +0.171 HD
BRANCH  15  18
ATOM     18  C   UNL     1      17.337 -22.023   3.751  1.00  0.00    +0.040 A 
ATOM     19  C   UNL     1      17.785 -23.057   4.587  1.00  0.00    +0.015 A 
ATOM     20  C   UNL     1      18.073 -21.693   2.602  1.00  0.00    +0.015 A 
ATOM     21  C   UNL     1      18.977 -23.728   4.297  1.00  0.00    +0.022 A 
ATOM     22  C   UNL     1      19.264 -22.362   2.310  1.00  0.00    +0.022 A 
ATOM     23  C   UNL     1      19.725 -23.359   3.175  1.00  0.00    +0.082 A 
BRANCH  23  24
ATOM     24  S   UNL     1      21.235 -24.230   2.793  1.00  0.00    +0.243 S 
ATOM     25  O   UNL     1      21.322 -25.359   3.695  1.00  0.00    -0.207 OA
ATOM     26  O   UNL     1      21.276 -24.413   1.358  1.00  0.00    -0.207 OA
BRANCH  24  27
ATOM     27  N   UNL     1      22.438 -23.112   3.220  1.00  0.00    -0.198 NA
ATOM     28  C   UNL     1      23.363 -23.494   4.311  1.00  0.00    +0.102 C 
ATOM     29  C   UNL     1      22.997 -22.242   2.157  1.00  0.00    +0.102 C 
ATOM     30  C   UNL     1      24.345 -22.362   4.587  1.00  0.00    +0.017 C 
ATOM     31  C   UNL     1      24.507 -22.402   2.052  1.00  0.00    +0.017 C 
ATOM     32  C   UNL     1      25.208 -22.055   3.364  1.00  0.00    +0.003 C 
ENDBRANCH  24  27
ENDBRANCH  23  24
ENDBRANCH  15  18
ENDBRANCH   5  14
TORSDOF 6
ENDMDL
MODEL 7
REMARK VINA RESULT:    -8.142      4.643      6.501
REMARK INTER + INTRA:         -11.807
REMARK INTER:                 -10.558
REMARK INTRA:                  -1.249
REMARK UNBOUND:                -0.809
REMARK SMILES COC(=O)NC(=O)c1ccsc1NC(=O)c1ccc(S(=O)(=O)N2CCCCC2)cc1
REMARK SMILES IDX 8 1 9 2 10 3 11 4 12 5 6 6 3 7 4 8 5 9 7 10 2 12 1 13 13 14
REMARK SMILES IDX 14 15 15 16 16 18 17 19 30 20 18 21 29 22 19 23 20 24 21 25
REMARK SMILES IDX 22 26 23 27 24 28 28 29 25 30 27 31 26 32
REMARK H PARENT 5 11 13 17
ROOT
ATOM      1  C   UNL     1      15.786 -20.348   3.878  1.00  0.00    +0.075 A 
ATOM      2  C   UNL     1      14.610 -20.106   4.677  1.00  0.00    +0.028 A 
ATOM      3  C   UNL     1      14.616 -20.811   5.860  1.00  0.00    +0.068 A 
ATOM      4  S   UNL     1      16.020 -21.757   6.027  1.00  0.00    -0.126 S 
ATOM      5  C   UNL     1      16.630 -21.247   4.528  1.00  0.00    +0.108 A 
ENDROOT
BRANCH   1   6
ATOM      6  C   UNL     1      16.133 -19.774   2.564  1.00  0.00    +0.263 C 
ATOM      7  C   UNL     1      15.765 -17.823   1.161  1.00  0.00    +0.413 C 
ATOM      8  O   UNL     1      16.432 -18.125   0.185  1.00  0.00    -0.224 OA
ATOM      9  N   UNL     1      15.594 -18.534   2.312  1.00  0.00    -0.257 N 
ATOM     10  O   UNL     1      16.853 -20.394   1.785  1.00  0.00    -0.269 OA
ATOM     11  H   UNL     1      14.993 -18.088   2.979  1.00  0.00    +0.176 HD
BRANCH   7  12
ATOM     12  O   UNL     1      15.052 -16.669   1.273  1.00  0.00    -0.453 OA
ATOM     13  C   UNL     1      14.049 -16.702   2.292  1.00  0.00    +0.284 C 
ENDBRANCH   7  12
ENDBRANCH   1   6
BRANCH   5  14
ATOM     14  N   UNL     1      17.854 -21.693   4.051  1.00  0.00    -0.313 N 
ATOM     15  C   UNL     1      18.148 -22.924   3.499  1.00  0.00    +0.256 C 
ATOM     16  O   UNL     1      17.371 -23.839   3.254  1.00  0.00    -0.269 OA
ATOM     17  H   UNL     1      18.588 -20.985   4.076  1.00  0.00    +0.171 HD
BRANCH  15  18
ATOM     18  C   UNL     1      19.585 -23.111   3.128  1.00  0.00    +0.040 A 
ATOM     19  C   UNL     1      20.401 -24.064   3.755  1.00  0.00    +0.015 A 
ATOM     20  C   UNL     1      20.112 -22.322   2.093  1.00  0.00    +0.015 A 
ATOM     21  C   UNL     1      21.740 -24.201   3.378  1.00  0.00    +0.022 A 
ATOM     22  C   UNL     1      21.451 -22.457   1.714  1.00  0.00    +0.022 A 
ATOM     23  C   UNL     1      22.266 -23.378   2.378  1.00  0.00    +0.082 A 
BRANCH  23  24
ATOM     24  S   UNL     1      23.969 -23.567   1.881  1.00  0.00    +0.243 S 
ATOM     25  O   UNL     1      24.189 -24.974   1.620  1.00  0.00    -0.207 OA
ATOM     26  O   UNL     1      24.237 -22.567   0.870  1.00  0.00    -0.207 OA
BRANCH  24  27
ATOM     27  N   UNL     1      24.824 -23.145   3.285  1.00  0.00    -0.198 NA
ATOM     28  C   UNL     1      24.376 -21.938   4.016  1.00  0.00    +0.102 C 
ATOM     29  C   UNL     1      25.405 -24.235   4.106  1.00  0.00    +0.102 C 
ATOM     30  C   UNL     1      25.276 -21.689   5.220  1.00  0.00    +0.017 C 
ATOM     31  C   UNL     1      24.890 -24.180   5.538  1.00  0.00    +0.017 C 
ATOM     32  C   UNL     1      25.224 -22.850   6.212  1.00  0.00    +0.003 C 
ENDBRANCH  24  27
ENDBRANCH  23  24
ENDBRANCH  15  18
ENDBRANCH   5  14
TORSDOF 6
ENDMDL
MODEL 8
REMARK VINA RESULT:    -8.082      4.874      6.533
REMARK INTER + INTRA:         -11.725
REMARK INTER:                 -10.634
REMARK INTRA:                  -1.091
REMARK UNBOUND:                -0.809
REMARK SMILES COC(=O)NC(=O)c1ccsc1NC(=O)c1ccc(S(=O)(=O)N2CCCCC2)cc1
REMARK SMILES IDX 8 1 9 2 10 3 11 4 12 5 6 6 3 7 4 8 5 9 7 10 2 12 1 13 13 14
REMARK SMILES IDX 14 15 15 16 16 18 17 19 30 20 18 21 29 22 19 23 20 24 21 25
REMARK SMILES IDX 22 26 23 27 24 28 28 29 25 30 27 31 26 32
REMARK H PARENT 5 11 13 17
ROOT
ATOM      1  C   UNL     1      16.410 -19.587   2.390  1.00  0.00    +0.075 A 
ATOM      2  C   UNL     1      15.448 -18.750   1.715  1.00  0.00    +0.028 A 
ATOM      3  C   UNL     1      15.752 -18.556   0.386  1.00  0.00    +0.068 A 
ATOM      4  S   UNL     1      17.175 -19.373  -0.064  1.00  0.00    -0.126 S 
ATOM      5  C   UNL     1      17.406 -19.984   1.501  1.00  0.00    +0.108 A 
ENDROOT
BRANCH   1   6
ATOM      6  C   UNL     1      16.416 -20.017   3.801  1.00  0.00    +0.263 C 
ATOM      7  C   UNL     1      15.784 -19.292   6.034  1.00  0.00    +0.413 C 
ATOM      8  O   UNL     1      16.135 -20.262   6.687  1.00  0.00    -0.224 OA
ATOM      9  N   UNL     1      15.870 -19.116   4.685  1.00  0.00    -0.257 N 
ATOM     10  O   UNL     1      16.887 -21.107   4.117  1.00  0.00    -0.269 OA
ATOM     11  H   UNL     1      15.523 -18.230   4.369  1.00  0.00    +0.176 HD
BRANCH   7  12
ATOM     12  O   UNL     1      15.220 -18.175   6.568  1.00  0.00    -0.453 OA
ATOM     13  C   UNL     1      14.073 -17.705   5.853  1.00  0.00    +0.284 C 
ENDBRANCH   7  12
ENDBRANCH   1   6
BRANCH   5  14
ATOM     14  N   UNL     1      18.483 -20.804   1.810  1.00  0.00    -0.313 N 
ATOM     15  C   UNL     1      18.681 -22.117   1.434  1.00  0.00    +0.256 C 
ATOM     16  O   UNL     1      17.982 -22.796   0.692  1.00  0.00    -0.269 OA
ATOM     17  H   UNL     1      19.221 -20.333   2.333  1.00  0.00    +0.171 HD
BRANCH  15  18
ATOM     18  C   UNL     1      19.928 -22.738   1.979  1.00  0.00    +0.040 A 
ATOM     19  C   UNL     1      21.116 -22.804   1.235  1.00  0.00    +0.015 A 
ATOM     20  C   UNL     1      19.903 -23.237   3.291  1.00  0.00    +0.015 A 
ATOM     21  C   UNL     1      22.256 -23.398   1.785  1.00  0.00    +0.022 A 
ATOM     22  C   UNL     1      21.041 -23.831   3.842  1.00  0.00    +0.022 A 
ATOM     23  C   UNL     1      22.206 -23.933   3.075  1.00  0.00    +0.082 A 
BRANCH  23  24
ATOM     24  S   UNL     1      23.668 -24.671   3.785  1.00  0.00    +0.243 S 
ATOM     25  O   UNL     1      23.236 -25.798   4.585  1.00  0.00    -0.207 OA
ATOM     26  O   UNL     1      24.629 -24.836   2.716  1.00  0.00    -0.207 OA
BRANCH  24  27
ATOM     27  N   UNL     1      24.236 -23.461   4.829  1.00  0.00    -0.198 NA
ATOM     28  C   UNL     1      25.195 -23.869   5.882  1.00  0.00    +0.102 C 
ATOM     29  C   UNL     1      24.392 -22.088   4.293  1.00  0.00    +0.102 C 
ATOM     30  C   UNL     1      25.566 -22.670   6.747  1.00  0.00    +0.017 C 
ATOM     31  C   UNL     1      25.821 -21.589   4.462  1.00  0.00    +0.017 C 
ATOM     32  C   UNL     1      26.249 -21.576   5.929  1.00  0.00    +0.003 C 
ENDBRANCH  24  27
ENDBRANCH  23  24
ENDBRANCH  15  18
ENDBRANCH   5  14
TORSDOF 6
ENDMDL
MODEL 9
REMARK VINA RESULT:    -8.042      2.752      4.854
REMARK INTER + INTRA:         -11.671
REMARK INTER:                 -10.984
REMARK INTRA:                  -0.688
REMARK UNBOUND:                -0.809
REMARK SMILES COC(=O)NC(=O)c1ccsc1NC(=O)c1ccc(S(=O)(=O)N2CCCCC2)cc1
REMARK SMILES IDX 8 1 9 2 10 3 11 4 12 5 6 6 3 7 4 8 5 9 7 10 2 12 1 13 13 14
REMARK SMILES IDX 14 15 15 16 16 18 17 19 30 20 18 21 29 22 19 23 20 24 21 25
REMARK SMILES IDX 22 26 23 27 24 28 28 29 25 30 27 31 26 32
REMARK H PARENT 5 11 13 17
ROOT
ATOM      1  C   UNL     1      14.687 -18.083   2.711  1.00  0.00    +0.075 A 
ATOM      2  C   UNL     1      13.600 -17.253   3.170  1.00  0.00    +0.028 A 
ATOM      3  C   UNL     1      13.222 -17.537   4.464  1.00  0.00    +0.068 A 
ATOM      4  S   UNL     1      14.162 -18.786   5.137  1.00  0.00    -0.126 S 
ATOM      5  C   UNL     1      15.072 -18.966   3.717  1.00  0.00    +0.108 A 
ENDROOT
BRANCH   1   6
ATOM      6  C   UNL     1      15.357 -18.066   1.398  1.00  0.00    +0.263 C 
ATOM      7  C   UNL     1      16.121 -19.528  -0.389  1.00  0.00    +0.413 C 
ATOM      8  O   UNL     1      16.591 -18.706  -1.159  1.00  0.00    -0.224 OA
ATOM      9  N   UNL     1      15.517 -19.301   0.812  1.00  0.00    -0.257 N 
ATOM     10  O   UNL     1      15.731 -17.006   0.903  1.00  0.00    -0.269 OA
ATOM     11  H   UNL     1      15.212 -20.135   1.277  1.00  0.00    +0.176 HD
BRANCH   7  12
ATOM     12  O   UNL     1      16.119 -20.870  -0.611  1.00  0.00    -0.453 OA
ATOM     13  C   UNL     1      15.324 -21.273  -1.730  1.00  0.00    +0.284 C 
ENDBRANCH   7  12
ENDBRANCH   1   6
BRANCH   5  14
ATOM     14  N   UNL     1      16.095 -19.900   3.622  1.00  0.00    -0.313 N 
ATOM     15  C   UNL     1      16.049 -21.240   3.948  1.00  0.00    +0.256 C 
ATOM     16  O   UNL     1      15.076 -21.887   4.317  1.00  0.00    -0.269 OA
ATOM     17  H   UNL     1      16.951 -19.530   3.209  1.00  0.00    +0.171 HD
BRANCH  15  18
ATOM     18  C   UNL     1      17.346 -21.966   3.778  1.00  0.00    +0.040 A 
ATOM     19  C   UNL     1      17.709 -23.048   4.593  1.00  0.00    +0.015 A 
ATOM     20  C   UNL     1      18.203 -21.561   2.743  1.00  0.00    +0.015 A 
ATOM     21  C   UNL     1      18.933 -23.694   4.399  1.00  0.00    +0.022 A 
ATOM     22  C   UNL     1      19.428 -22.204   2.547  1.00  0.00    +0.022 A 
ATOM     23  C   UNL     1      19.799 -23.251   3.395  1.00  0.00    +0.082 A 
BRANCH  23  24
ATOM     24  S   UNL     1      21.353 -24.089   3.134  1.00  0.00    +0.243 S 
ATOM     25  O   UNL     1      22.406 -23.113   3.320  1.00  0.00    -0.207 OA
ATOM     26  O   UNL     1      21.319 -25.312   3.908  1.00  0.00    -0.207 OA
BRANCH  24  27
ATOM     27  N   UNL     1      21.292 -24.501   1.489  1.00  0.00    -0.198 NA
ATOM     28  C   UNL     1      20.048 -25.133   0.993  1.00  0.00    +0.102 C 
ATOM     29  C   UNL     1      22.026 -23.646   0.524  1.00  0.00    +0.102 C 
ATOM     30  C   UNL     1      20.184 -25.469  -0.487  1.00  0.00    +0.017 C 
ATOM     31  C   UNL     1      21.093 -23.097  -0.547  1.00  0.00    +0.017 C 
ATOM     32  C   UNL     1      20.407 -24.215  -1.331  1.00  0.00    +0.003 C 
ENDBRANCH  24  27
ENDBRANCH  23  24
ENDBRANCH  15  18
ENDBRANCH   5  14
TORSDOF 6
ENDMDL
