MODEL 1
REMARK VINA RESULT:    -8.849      0.000      0.000
REMARK INTER + INTRA:         -11.877
REMARK INTER:                 -11.435
REMARK INTRA:                  -0.441
REMARK UNBOUND:                -0.441
REMARK SMILES CCOC(=O)NC(=O)c1ccsc1NC(=O)c1ccn2cnnc2c1
REMARK SMILES IDX 4 1 5 2 6 3 7 4 8 5 3 7 2 8 1 9 9 10 10 11 13 12 11 13 12 14
REMARK SMILES IDX 14 15 15 16 16 17 17 19 18 20 25 21 19 22 24 23 20 24 23 25
REMARK SMILES IDX 21 26 22 27
REMARK H PARENT 6 6 14 18
ROOT
ATOM      1  C   UNL     1      15.776 -20.972   6.034  1.00  0.00    +0.414 C 
ATOM      2  O   UNL     1      16.557 -20.805   6.957  1.00  0.00    -0.224 OA
ATOM      3  N   UNL     1      14.934 -20.057   5.477  1.00  0.00    -0.257 N 
ATOM      4  C   UNL     1      14.906 -18.718   5.790  1.00  0.00    +0.263 C 
ATOM      5  O   UNL     1      15.644 -18.171   6.606  1.00  0.00    -0.269 OA
ATOM      6  H   UNL     1      14.374 -20.420   4.728  1.00  0.00    +0.176 HD
ENDROOT
BRANCH   1   7
ATOM      7  O   UNL     1      15.590 -22.155   5.389  1.00  0.00    -0.450 OA
BRANCH   7   8
ATOM      8  C   UNL     1      16.320 -22.323   4.162  1.00  0.00    +0.231 C 
ATOM      9  C   UNL     1      17.667 -22.963   4.437  1.00  0.00    +0.049 C 
ENDBRANCH   7   8
ENDBRANCH   1   7
BRANCH   4  10
ATOM     10  C   UNL     1      13.909 -17.929   5.043  1.00  0.00    +0.075 A 
ATOM     11  C   UNL     1      12.807 -17.160   5.567  1.00  0.00    +0.028 A 
ATOM     12  C   UNL     1      13.947 -17.828   3.654  1.00  0.00    +0.108 A 
ATOM     13  C   UNL     1      12.075 -16.539   4.579  1.00  0.00    +0.068 A 
ATOM     14  S   UNL     1      12.701 -16.861   3.030  1.00  0.00    -0.126 S 
BRANCH  12  15
ATOM     15  N   UNL     1      14.885 -18.431   2.828  1.00  0.00    -0.313 N 
ATOM     16  C   UNL     1      15.456 -17.917   1.682  1.00  0.00    +0.256 C 
ATOM     17  O   UNL     1      15.214 -16.849   1.133  1.00  0.00    -0.269 OA
ATOM     18  H   UNL     1      15.150 -19.372   3.119  1.00  0.00    +0.171 HD
BRANCH  16  19
ATOM     19  C   UNL     1      16.457 -18.859   1.073  1.00  0.00    +0.045 C 
ATOM     20  C   UNL     1      17.238 -19.801   1.883  1.00  0.00    +0.032 C 
ATOM     21  C   UNL     1      16.638 -18.772  -0.265  1.00  0.00    +0.063 C 
ATOM     22  C   UNL     1      18.120 -20.612   1.273  1.00  0.00    +0.095 C 
ATOM     23  C   UNL     1      17.568 -19.636  -0.904  1.00  0.00    +0.161 A 
ATOM     24  N   UNL     1      18.272 -20.524  -0.107  1.00  0.00    -0.289 N 
ATOM     25  N   UNL     1      17.931 -19.795  -2.158  1.00  0.00    -0.131 NA
ATOM     26  C   UNL     1      19.075 -21.215  -0.969  1.00  0.00    +0.230 A 
ATOM     27  N   UNL     1      18.884 -20.793  -2.199  1.00  0.00    -0.138 NA
ENDBRANCH  16  19
ENDBRANCH  12  15
ENDBRANCH   4  10
TORSDOF 5
ENDMDL
MODEL 2
REMARK VINA RESULT:    -8.554      3.625      7.420
REMARK INTER + INTRA:         -11.496
REMARK INTER:                 -10.396
REMARK INTRA:                  -1.100
REMARK UNBOUND:                -0.441
REMARK SMILES CCOC(=O)NC(=O)c1ccsc1NC(=O)c1ccn2cnnc2c1
REMARK SMILES IDX 4 1 5 2 6 3 7 4 8 5 3 7 2 8 1 9 9 10 10 11 13 12 11 13 12 14
REMARK SMILES IDX 14 15 15 16 16 17 17 19 18 20 25 21 19 22 24 23 20 24 23 25
REMARK SMILES IDX 21 26 22 27
REMARK H PARENT 6 6 14 18
ROOT
ATOM      1  C   UNL     1      16.222 -21.654  -2.014  1.00  0.00    +0.414 C 
ATOM      2  O   UNL     1      15.087 -21.725  -2.453  1.00  0.00    -0.224 OA
ATOM      3  N   UNL     1      16.760 -22.354  -0.975  1.00  0.00    -0.257 N 
ATOM      4  C   UNL     1      16.131 -23.375  -0.301  1.00  0.00    +0.263 C 
ATOM      5  O   UNL     1      15.006 -23.795  -0.556  1.00  0.00    -0.269 OA
ATOM      6  H   UNL     1      17.719 -22.127  -0.783  1.00  0.00    +0.176 HD
ENDROOT
BRANCH   1   7
ATOM      7  O   UNL     1      17.182 -20.817  -2.492  1.00  0.00    -0.450 OA
BRANCH   7   8
ATOM      8  C   UNL     1      18.063 -20.245  -1.511  1.00  0.00    +0.231 C 
ATOM      9  C   UNL     1      17.636 -18.826  -1.189  1.00  0.00    +0.049 C 
ENDBRANCH   7   8
ENDBRANCH   1   7
BRANCH   4  10
ATOM     10  C   UNL     1      16.925 -23.982   0.782  1.00  0.00    +0.075 A 
ATOM     11  C   UNL     1      17.703 -25.196   0.744  1.00  0.00    +0.028 A 
ATOM     12  C   UNL     1      17.022 -23.390   2.039  1.00  0.00    +0.108 A 
ATOM     13  C   UNL     1      18.326 -25.466   1.942  1.00  0.00    +0.068 A 
ATOM     14  S   UNL     1      17.996 -24.273   3.110  1.00  0.00    -0.126 S 
BRANCH  12  15
ATOM     15  N   UNL     1      16.411 -22.203   2.420  1.00  0.00    -0.313 N 
ATOM     16  C   UNL     1      16.946 -20.932   2.396  1.00  0.00    +0.256 C 
ATOM     17  O   UNL     1      18.082 -20.599   2.083  1.00  0.00    -0.269 OA
ATOM     18  H   UNL     1      15.462 -22.320   2.773  1.00  0.00    +0.171 HD
BRANCH  16  19
ATOM     19  C   UNL     1      15.965 -19.892   2.860  1.00  0.00    +0.045 C 
ATOM     20  C   UNL     1      15.492 -18.817   1.981  1.00  0.00    +0.032 C 
ATOM     21  C   UNL     1      15.561 -19.968   4.148  1.00  0.00    +0.063 C 
ATOM     22  C   UNL     1      14.616 -17.916   2.462  1.00  0.00    +0.095 C 
ATOM     23  C   UNL     1      14.632 -19.017   4.650  1.00  0.00    +0.161 A 
ATOM     24  N   UNL     1      14.194 -18.028   3.783  1.00  0.00    -0.289 N 
ATOM     25  N   UNL     1      14.055 -18.855   5.820  1.00  0.00    -0.131 NA
ATOM     26  C   UNL     1      13.326 -17.272   4.516  1.00  0.00    +0.230 A 
ATOM     27  N   UNL     1      13.229 -17.752   5.736  1.00  0.00    -0.138 NA
ENDBRANCH  16  19
ENDBRANCH  12  15
ENDBRANCH   4  10
TORSDOF 5
ENDMDL
MODEL 3
REMARK VINA RESULT:    -8.517      3.695      7.477
REMARK INTER + INTRA:         -11.448
REMARK INTER:                 -10.307
REMARK INTRA:                  -1.141
REMARK UNBOUND:                -0.441
REMARK SMILES CCOC(=O)NC(=O)c1ccsc1NC(=O)c1ccn2cnnc2c1
REMARK SMILES IDX 4 1 5 2 6 3 7 4 8 5 3 7 2 8 1 9 9 10 10 11 13 12 11 13 12 14
REMARK SMILES IDX 14 15 15 16 16 17 17 19 18 20 25 21 19 22 24 23 20 24 23 25
REMARK SMILES IDX 21 26 22 27
REMARK H PARENT 6 6 14 18
ROOT
ATOM      1  C   UNL     1      15.750 -21.551  -1.386  1.00  0.00    +0.414 C 
ATOM      2  O   UNL     1      14.577 -21.667  -1.698  1.00  0.00    -0.224 OA
ATOM      3  N   UNL     1      16.490 -22.381  -0.598  1.00  0.00    -0.257 N 
ATOM      4  C   UNL     1      16.061 -23.590  -0.103  1.00  0.00    +0.263 C 
ATOM      5  O   UNL     1      14.956 -24.083  -0.316  1.00  0.00    -0.269 OA
ATOM      6  H   UNL     1      17.441 -22.083  -0.471  1.00  0.00    +0.176 HD
ENDROOT
BRANCH   1   7
ATOM      7  O   UNL     1      16.550 -20.520  -1.771  1.00  0.00    -0.450 OA
BRANCH   7   8
ATOM      8  C   UNL     1      17.486 -20.048  -0.786  1.00  0.00    +0.231 C 
ATOM      9  C   UNL     1      16.904 -18.867  -0.035  1.00  0.00    +0.049 C 
ENDBRANCH   7   8
ENDBRANCH   1   7
BRANCH   4  10
ATOM     10  C   UNL     1      17.051 -24.308   0.719  1.00  0.00    +0.075 A 
ATOM     11  C   UNL     1      17.961 -25.350   0.310  1.00  0.00    +0.028 A 
ATOM     12  C   UNL     1      17.229 -24.019   2.070  1.00  0.00    +0.108 A 
ATOM     13  C   UNL     1      18.756 -25.796   1.343  1.00  0.00    +0.068 A 
ATOM     14  S   UNL     1      18.429 -24.974   2.796  1.00  0.00    -0.126 S 
BRANCH  12  15
ATOM     15  N   UNL     1      16.529 -23.059   2.788  1.00  0.00    -0.313 N 
ATOM     16  C   UNL     1      16.894 -21.751   3.028  1.00  0.00    +0.256 C 
ATOM     17  O   UNL     1      17.930 -21.186   2.702  1.00  0.00    -0.269 OA
ATOM     18  H   UNL     1      15.654 -23.398   3.188  1.00  0.00    +0.171 HD
BRANCH  16  19
ATOM     19  C   UNL     1      15.858 -21.008   3.824  1.00  0.00    +0.045 C 
ATOM     20  C   UNL     1      15.162 -21.616   4.964  1.00  0.00    +0.032 C 
ATOM     21  C   UNL     1      15.563 -19.752   3.416  1.00  0.00    +0.063 C 
ATOM     22  C   UNL     1      14.243 -20.894   5.630  1.00  0.00    +0.095 C 
ATOM     23  C   UNL     1      14.595 -18.993   4.127  1.00  0.00    +0.161 A 
ATOM     24  N   UNL     1      13.974 -19.596   5.209  1.00  0.00    -0.289 N 
ATOM     25  N   UNL     1      14.129 -17.771   3.984  1.00  0.00    -0.131 NA
ATOM     26  C   UNL     1      13.111 -18.655   5.693  1.00  0.00    +0.230 A 
ATOM     27  N   UNL     1      13.191 -17.558   4.974  1.00  0.00    -0.138 NA
ENDBRANCH  16  19
ENDBRANCH  12  15
ENDBRANCH   4  10
TORSDOF 5
ENDMDL
MODEL 4
REMARK VINA RESULT:    -8.310      2.758      5.052
REMARK INTER + INTRA:         -11.181
REMARK INTER:                 -10.242
REMARK INTRA:                  -0.939
REMARK UNBOUND:                -0.441
REMARK SMILES CCOC(=O)NC(=O)c1ccsc1NC(=O)c1ccn2cnnc2c1
REMARK SMILES IDX 4 1 5 2 6 3 7 4 8 5 3 7 2 8 1 9 9 10 10 11 13 12 11 13 12 14
REMARK SMILES IDX 14 15 15 16 16 17 17 19 18 20 25 21 19 22 24 23 20 24 23 25
REMARK SMILES IDX 21 26 22 27
REMARK H PARENT 6 6 14 18
ROOT
ATOM      1  C   UNL     1      14.642 -17.288   2.054  1.00  0.00    +0.414 C 
ATOM      2  O   UNL     1      15.178 -16.831   1.058  1.00  0.00    -0.224 OA
ATOM      3  N   UNL     1      14.977 -18.419   2.736  1.00  0.00    -0.257 N 
ATOM      4  C   UNL     1      16.083 -19.197   2.483  1.00  0.00    +0.263 C 
ATOM      5  O   UNL     1      16.919 -18.965   1.613  1.00  0.00    -0.269 OA
ATOM      6  H   UNL     1      14.388 -18.608   3.528  1.00  0.00    +0.176 HD
ENDROOT
BRANCH   1   7
ATOM      7  O   UNL     1      13.561 -16.736   2.668  1.00  0.00    -0.450 OA
BRANCH   7   8
ATOM      8  C   UNL     1      13.439 -16.994   4.077  1.00  0.00    +0.231 C 
ATOM      9  C   UNL     1      11.998 -16.827   4.517  1.00  0.00    +0.049 C 
ENDBRANCH   7   8
ENDBRANCH   1   7
BRANCH   4  10
ATOM     10  C   UNL     1      16.232 -20.367   3.366  1.00  0.00    +0.075 A 
ATOM     11  C   UNL     1      15.657 -20.578   4.672  1.00  0.00    +0.028 A 
ATOM     12  C   UNL     1      16.988 -21.476   2.991  1.00  0.00    +0.108 A 
ATOM     13  C   UNL     1      16.002 -21.796   5.215  1.00  0.00    +0.068 A 
ATOM     14  S   UNL     1      17.001 -22.694   4.171  1.00  0.00    -0.126 S 
BRANCH  12  15
ATOM     15  N   UNL     1      17.669 -21.617   1.789  1.00  0.00    -0.313 N 
ATOM     16  C   UNL     1      19.024 -21.787   1.601  1.00  0.00    +0.256 C 
ATOM     17  O   UNL     1      19.907 -21.797   2.450  1.00  0.00    -0.269 OA
ATOM     18  H   UNL     1      17.069 -21.565   0.966  1.00  0.00    +0.171 HD
BRANCH  16  19
ATOM     19  C   UNL     1      19.384 -21.933   0.149  1.00  0.00    +0.045 C 
ATOM     20  C   UNL     1      20.415 -22.869  -0.311  1.00  0.00    +0.032 C 
ATOM     21  C   UNL     1      18.735 -21.127  -0.722  1.00  0.00    +0.063 C 
ATOM     22  C   UNL     1      20.689 -22.947  -1.625  1.00  0.00    +0.095 C 
ATOM     23  C   UNL     1      19.026 -21.216  -2.110  1.00  0.00    +0.161 A 
ATOM     24  N   UNL     1      19.992 -22.126  -2.507  1.00  0.00    -0.289 N 
ATOM     25  N   UNL     1      18.553 -20.596  -3.170  1.00  0.00    -0.131 NA
ATOM     26  C   UNL     1      20.063 -22.002  -3.865  1.00  0.00    +0.230 A 
ATOM     27  N   UNL     1      19.209 -21.092  -4.278  1.00  0.00    -0.138 NA
ENDBRANCH  16  19
ENDBRANCH  12  15
ENDBRANCH   4  10
TORSDOF 5
ENDMDL
MODEL 5
REMARK VINA RESULT:    -8.156      2.295      4.741
REMARK INTER + INTRA:         -10.981
REMARK INTER:                 -10.638
REMARK INTRA:                  -0.342
REMARK UNBOUND:                -0.441
REMARK SMILES CCOC(=O)NC(=O)c1ccsc1NC(=O)c1ccn2cnnc2c1
REMARK SMILES IDX 4 1 5 2 6 3 7 4 8 5 3 7 2 8 1 9 9 10 10 11 13 12 11 13 12 14
REMARK SMILES IDX 14 15 15 16 16 17 17 19 18 20 25 21 19 22 24 23 20 24 23 25
REMARK SMILES IDX 21 26 22 27
REMARK H PARENT 6 6 14 18
ROOT
ATOM      1  C   UNL     1      16.127 -19.350  -0.167  1.00  0.00    +0.414 C 
ATOM      2  O   UNL     1      16.608 -18.529  -0.931  1.00  0.00    -0.224 OA
ATOM      3  N   UNL     1      15.497 -19.117   1.019  1.00  0.00    -0.257 N 
ATOM      4  C   UNL     1      15.181 -17.874   1.515  1.00  0.00    +0.263 C 
ATOM      5  O   UNL     1      15.417 -16.811   0.946  1.00  0.00    -0.269 OA
ATOM      6  H   UNL     1      15.185 -19.950   1.485  1.00  0.00    +0.176 HD
ENDROOT
BRANCH   1   7
ATOM      7  O   UNL     1      16.155 -20.695  -0.367  1.00  0.00    -0.450 OA
BRANCH   7   8
ATOM      8  C   UNL     1      16.468 -21.126  -1.702  1.00  0.00    +0.231 C 
ATOM      9  C   UNL     1      15.212 -21.598  -2.409  1.00  0.00    +0.049 C 
ENDBRANCH   7   8
ENDBRANCH   1   7
BRANCH   4  10
ATOM     10  C   UNL     1      14.492 -17.885   2.817  1.00  0.00    +0.075 A 
ATOM     11  C   UNL     1      13.393 -17.057   3.251  1.00  0.00    +0.028 A 
ATOM     12  C   UNL     1      14.850 -18.773   3.829  1.00  0.00    +0.108 A 
ATOM     13  C   UNL     1      12.988 -17.340   4.537  1.00  0.00    +0.068 A 
ATOM     14  S   UNL     1      13.906 -18.596   5.227  1.00  0.00    -0.126 S 
BRANCH  12  15
ATOM     15  N   UNL     1      15.858 -19.724   3.746  1.00  0.00    -0.313 N 
ATOM     16  C   UNL     1      15.804 -21.048   4.125  1.00  0.00    +0.256 C 
ATOM     17  O   UNL     1      14.875 -21.642   4.657  1.00  0.00    -0.269 OA
ATOM     18  H   UNL     1      16.738 -19.363   3.374  1.00  0.00    +0.171 HD
BRANCH  16  19
ATOM     19  C   UNL     1      17.094 -21.772   3.853  1.00  0.00    +0.045 C 
ATOM     20  C   UNL     1      17.576 -22.859   4.711  1.00  0.00    +0.032 C 
ATOM     21  C   UNL     1      17.817 -21.347   2.792  1.00  0.00    +0.063 C 
ATOM     22  C   UNL     1      18.741 -23.462   4.412  1.00  0.00    +0.095 C 
ATOM     23  C   UNL     1      19.045 -21.990   2.478  1.00  0.00    +0.161 A 
ATOM     24  N   UNL     1      19.457 -23.026   3.302  1.00  0.00    -0.289 N 
ATOM     25  N   UNL     1      19.931 -21.818   1.521  1.00  0.00    -0.131 NA
ATOM     26  C   UNL     1      20.642 -23.451   2.773  1.00  0.00    +0.230 A 
ATOM     27  N   UNL     1      20.940 -22.741   1.708  1.00  0.00    -0.138 NA
ENDBRANCH  16  19
ENDBRANCH  12  15
ENDBRANCH   4  10
TORSDOF 5
ENDMDL
MODEL 6
REMARK VINA RESULT:    -8.079      3.316      7.193
REMARK INTER + INTRA:         -10.882
REMARK INTER:                  -9.932
REMARK INTRA:                  -0.951
REMARK UNBOUND:                -0.441
REMARK SMILES CCOC(=O)NC(=O)c1ccsc1NC(=O)c1ccn2cnnc2c1
REMARK SMILES IDX 4 1 5 2 6 3 7 4 8 5 3 7 2 8 1 9 9 10 10 11 13 12 11 13 12 14
REMARK SMILES IDX 14 15 15 16 16 17 17 19 18 20 25 21 19 22 24 23 20 24 23 25
REMARK SMILES IDX 21 26 22 27
REMARK H PARENT 6 6 14 18
ROOT
ATOM      1  C   UNL     1      16.947 -22.765  -1.040  1.00  0.00    +0.414 C 
ATOM      2  O   UNL     1      15.746 -22.857  -1.233  1.00  0.00    -0.224 OA
ATOM      3  N   UNL     1      17.626 -23.001   0.118  1.00  0.00    -0.257 N 
ATOM      4  C   UNL     1      17.073 -23.514   1.268  1.00  0.00    +0.263 C 
ATOM      5  O   UNL     1      15.894 -23.835   1.397  1.00  0.00    -0.269 OA
ATOM      6  H   UNL     1      18.618 -22.856   0.046  1.00  0.00    +0.176 HD
ENDROOT
BRANCH   1   7
ATOM      7  O   UNL     1      17.850 -22.377  -1.981  1.00  0.00    -0.450 OA
BRANCH   7   8
ATOM      8  C   UNL     1      18.677 -21.254  -1.632  1.00  0.00    +0.231 C 
ATOM      9  C   UNL     1      17.866 -19.974  -1.673  1.00  0.00    +0.049 C 
ENDBRANCH   7   8
ENDBRANCH   1   7
BRANCH   4  10
ATOM     10  C   UNL     1      18.018 -23.686   2.386  1.00  0.00    +0.075 A 
ATOM     11  C   UNL     1      19.117 -24.615   2.488  1.00  0.00    +0.028 A 
ATOM     12  C   UNL     1      17.947 -22.899   3.533  1.00  0.00    +0.108 A 
ATOM     13  C   UNL     1      19.801 -24.499   3.679  1.00  0.00    +0.068 A 
ATOM     14  S   UNL     1      19.145 -23.282   4.670  1.00  0.00    -0.126 S 
BRANCH  12  15
ATOM     15  N   UNL     1      17.018 -21.893   3.763  1.00  0.00    -0.313 N 
ATOM     16  C   UNL     1      16.208 -21.728   4.867  1.00  0.00    +0.256 C 
ATOM     17  O   UNL     1      16.107 -22.459   5.844  1.00  0.00    -0.269 OA
ATOM     18  H   UNL     1      16.934 -21.224   2.997  1.00  0.00    +0.171 HD
BRANCH  16  19
ATOM     19  C   UNL     1      15.350 -20.497   4.764  1.00  0.00    +0.045 C 
ATOM     20  C   UNL     1      14.459 -20.073   5.850  1.00  0.00    +0.032 C 
ATOM     21  C   UNL     1      15.407 -19.811   3.600  1.00  0.00    +0.063 C 
ATOM     22  C   UNL     1      13.715 -18.964   5.690  1.00  0.00    +0.095 C 
ATOM     23  C   UNL     1      14.623 -18.637   3.439  1.00  0.00    +0.161 A 
ATOM     24  N   UNL     1      13.808 -18.259   4.494  1.00  0.00    -0.289 N 
ATOM     25  N   UNL     1      14.491 -17.772   2.457  1.00  0.00    -0.131 NA
ATOM     26  C   UNL     1      13.185 -17.120   4.072  1.00  0.00    +0.230 A 
ATOM     27  N   UNL     1      13.582 -16.814   2.856  1.00  0.00    -0.138 NA
ENDBRANCH  16  19
ENDBRANCH  12  15
ENDBRANCH   4  10
TORSDOF 5
ENDMDL
MODEL 7
REMARK VINA RESULT:    -8.023      2.469      6.111
REMARK INTER + INTRA:         -10.809
REMARK INTER:                 -10.376
REMARK INTRA:                  -0.433
REMARK UNBOUND:                -0.441
REMARK SMILES CCOC(=O)NC(=O)c1ccsc1NC(=O)c1ccn2cnnc2c1
REMARK SMILES IDX 4 1 5 2 6 3 7 4 8 5 3 7 2 8 1 9 9 10 10 11 13 12 11 13 12 14
REMARK SMILES IDX 14 15 15 16 16 17 17 19 18 20 25 21 19 22 24 23 20 24 23 25
REMARK SMILES IDX 21 26 22 27
REMARK H PARENT 6 6 14 18
ROOT
ATOM      1  C   UNL     1      17.598 -22.093   4.059  1.00  0.00    +0.414 C 
ATOM      2  O   UNL     1      18.656 -22.032   4.663  1.00  0.00    -0.224 OA
ATOM      3  N   UNL     1      17.392 -21.953   2.720  1.00  0.00    -0.257 N 
ATOM      4  C   UNL     1      18.385 -21.834   1.776  1.00  0.00    +0.263 C 
ATOM      5  O   UNL     1      19.589 -21.848   2.019  1.00  0.00    -0.269 OA
ATOM      6  H   UNL     1      16.430 -22.036   2.443  1.00  0.00    +0.176 HD
ENDROOT
BRANCH   1   7
ATOM      7  O   UNL     1      16.389 -22.302   4.647  1.00  0.00    -0.450 OA
BRANCH   7   8
ATOM      8  C   UNL     1      16.285 -21.916   6.028  1.00  0.00    +0.231 C 
ATOM      9  C   UNL     1      14.848 -22.033   6.498  1.00  0.00    +0.049 C 
ENDBRANCH   7   8
ENDBRANCH   1   7
BRANCH   4  10
ATOM     10  C   UNL     1      17.908 -21.702   0.388  1.00  0.00    +0.075 A 
ATOM     11  C   UNL     1      18.405 -22.366  -0.792  1.00  0.00    +0.028 A 
ATOM     12  C   UNL     1      16.838 -20.874   0.057  1.00  0.00    +0.108 A 
ATOM     13  C   UNL     1      17.716 -22.012  -1.932  1.00  0.00    +0.068 A 
ATOM     14  S   UNL     1      16.473 -20.898  -1.600  1.00  0.00    -0.126 S 
BRANCH  12  15
ATOM     15  N   UNL     1      16.113 -20.098   0.951  1.00  0.00    -0.313 N 
ATOM     16  C   UNL     1      15.952 -18.729   0.944  1.00  0.00    +0.256 C 
ATOM     17  O   UNL     1      16.455 -17.915   0.180  1.00  0.00    -0.269 OA
ATOM     18  H   UNL     1      15.676 -20.632   1.702  1.00  0.00    +0.171 HD
BRANCH  16  19
ATOM     19  C   UNL     1      15.069 -18.253   2.063  1.00  0.00    +0.045 C 
ATOM     20  C   UNL     1      14.199 -17.079   1.928  1.00  0.00    +0.032 C 
ATOM     21  C   UNL     1      15.139 -18.939   3.227  1.00  0.00    +0.063 C 
ATOM     22  C   UNL     1      13.436 -16.706   2.972  1.00  0.00    +0.095 C 
ATOM     23  C   UNL     1      14.328 -18.542   4.325  1.00  0.00    +0.161 A 
ATOM     24  N   UNL     1      13.506 -17.441   4.151  1.00  0.00    -0.289 N 
ATOM     25  N   UNL     1      14.167 -19.017   5.541  1.00  0.00    -0.131 NA
ATOM     26  C   UNL     1      12.853 -17.293   5.341  1.00  0.00    +0.230 A 
ATOM     27  N   UNL     1      13.236 -18.227   6.184  1.00  0.00    -0.138 NA
ENDBRANCH  16  19
ENDBRANCH  12  15
ENDBRANCH   4  10
TORSDOF 5
ENDMDL
MODEL 8
REMARK VINA RESULT:    -7.990      2.170      4.493
REMARK INTER + INTRA:         -10.767
REMARK INTER:                 -10.598
REMARK INTRA:                  -0.168
REMARK UNBOUND:                -0.441
REMARK SMILES CCOC(=O)NC(=O)c1ccsc1NC(=O)c1ccn2cnnc2c1
REMARK SMILES IDX 4 1 5 2 6 3 7 4 8 5 3 7 2 8 1 9 9 10 10 11 13 12 11 13 12 14
REMARK SMILES IDX 14 15 15 16 16 17 17 19 18 20 25 21 19 22 24 23 20 24 23 25
REMARK SMILES IDX 21 26 22 27
REMARK H PARENT 6 6 14 18
ROOT
ATOM      1  C   UNL     1      16.281 -18.575   1.043  1.00  0.00    +0.414 C 
ATOM      2  O   UNL     1      16.392 -17.762   0.140  1.00  0.00    -0.224 OA
ATOM      3  N   UNL     1      15.501 -18.484   2.157  1.00  0.00    -0.257 N 
ATOM      4  C   UNL     1      14.588 -17.485   2.402  1.00  0.00    +0.263 C 
ATOM      5  O   UNL     1      14.351 -16.549   1.643  1.00  0.00    -0.269 OA
ATOM      6  H   UNL     1      15.573 -19.275   2.771  1.00  0.00    +0.176 HD
ENDROOT
BRANCH   1   7
ATOM      7  O   UNL     1      16.959 -19.753   1.105  1.00  0.00    -0.450 OA
BRANCH   7   8
ATOM      8  C   UNL     1      17.175 -20.420  -0.150  1.00  0.00    +0.231 C 
ATOM      9  C   UNL     1      18.470 -21.209  -0.107  1.00  0.00    +0.049 C 
ENDBRANCH   7   8
ENDBRANCH   1   7
BRANCH   4  10
ATOM     10  C   UNL     1      13.858 -17.612   3.676  1.00  0.00    +0.075 A 
ATOM     11  C   UNL     1      12.860 -16.728   4.223  1.00  0.00    +0.028 A 
ATOM     12  C   UNL     1      14.066 -18.690   4.534  1.00  0.00    +0.108 A 
ATOM     13  C   UNL     1      12.378 -17.157   5.441  1.00  0.00    +0.068 A 
ATOM     14  S   UNL     1      13.105 -18.616   5.930  1.00  0.00    -0.126 S 
BRANCH  12  15
ATOM     15  N   UNL     1      14.948 -19.739   4.312  1.00  0.00    -0.313 N 
ATOM     16  C   UNL     1      15.913 -20.227   5.167  1.00  0.00    +0.256 C 
ATOM     17  O   UNL     1      16.222 -19.805   6.274  1.00  0.00    -0.269 OA
ATOM     18  H   UNL     1      14.860 -20.165   3.389  1.00  0.00    +0.171 HD
BRANCH  16  19
ATOM     19  C   UNL     1      16.656 -21.395   4.580  1.00  0.00    +0.045 C 
ATOM     20  C   UNL     1      17.885 -21.923   5.183  1.00  0.00    +0.032 C 
ATOM     21  C   UNL     1      16.157 -21.922   3.438  1.00  0.00    +0.063 C 
ATOM     22  C   UNL     1      18.501 -22.969   4.604  1.00  0.00    +0.095 C 
ATOM     23  C   UNL     1      16.810 -23.029   2.834  1.00  0.00    +0.161 A 
ATOM     24  N   UNL     1      17.957 -23.511   3.444  1.00  0.00    -0.289 N 
ATOM     25  N   UNL     1      16.554 -23.749   1.763  1.00  0.00    -0.131 NA
ATOM     26  C   UNL     1      18.364 -24.555   2.664  1.00  0.00    +0.230 A 
ATOM     27  N   UNL     1      17.535 -24.713   1.655  1.00  0.00    -0.138 NA
ENDBRANCH  16  19
ENDBRANCH  12  15
ENDBRANCH   4  10
TORSDOF 5
ENDMDL
MODEL 9
REMARK VINA RESULT:    -7.940      3.355      7.690
REMARK INTER + INTRA:         -10.702
REMARK INTER:                  -9.712
REMARK INTRA:                  -0.989
REMARK UNBOUND:                -0.441
REMARK SMILES CCOC(=O)NC(=O)c1ccsc1NC(=O)c1ccn2cnnc2c1
REMARK SMILES IDX 4 1 5 2 6 3 7 4 8 5 3 7 2 8 1 9 9 10 10 11 13 12 11 13 12 14
REMARK SMILES IDX 14 15 15 16 16 17 17 19 18 20 25 21 19 22 24 23 20 24 23 25
REMARK SMILES IDX 21 26 22 27
REMARK H PARENT 6 6 14 18
ROOT
ATOM      1  C   UNL     1      18.209 -20.229  -1.967  1.00  0.00    +0.414 C 
ATOM      2  O   UNL     1      17.615 -19.182  -1.773  1.00  0.00    -0.224 OA
ATOM      3  N   UNL     1      18.793 -21.041  -1.041  1.00  0.00    -0.257 N 
ATOM      4  C   UNL     1      18.706 -20.876   0.321  1.00  0.00    +0.263 C 
ATOM      5  O   UNL     1      18.081 -19.979   0.881  1.00  0.00    -0.269 OA
ATOM      6  H   UNL     1      19.235 -21.854  -1.432  1.00  0.00    +0.176 HD
ENDROOT
BRANCH   1   7
ATOM      7  O   UNL     1      18.417 -20.779  -3.194  1.00  0.00    -0.450 OA
BRANCH   7   8
ATOM      8  C   UNL     1      19.168 -22.005  -3.213  1.00  0.00    +0.231 C 
ATOM      9  C   UNL     1      20.250 -21.939  -4.274  1.00  0.00    +0.049 C 
ENDBRANCH   7   8
ENDBRANCH   1   7
BRANCH   4  10
ATOM     10  C   UNL     1      19.418 -21.893   1.115  1.00  0.00    +0.075 A 
ATOM     11  C   UNL     1      20.579 -22.664   0.740  1.00  0.00    +0.028 A 
ATOM     12  C   UNL     1      19.021 -22.223   2.409  1.00  0.00    +0.108 A 
ATOM     13  C   UNL     1      20.988 -23.525   1.735  1.00  0.00    +0.068 A 
ATOM     14  S   UNL     1      20.001 -23.412   3.116  1.00  0.00    -0.126 S 
BRANCH  12  15
ATOM     15  N   UNL     1      17.949 -21.662   3.090  1.00  0.00    -0.313 N 
ATOM     16  C   UNL     1      16.645 -22.108   3.127  1.00  0.00    +0.256 C 
ATOM     17  O   UNL     1      16.157 -23.059   2.529  1.00  0.00    -0.269 OA
ATOM     18  H   UNL     1      18.182 -20.808   3.597  1.00  0.00    +0.171 HD
BRANCH  16  19
ATOM     19  C   UNL     1      15.774 -21.249   4.000  1.00  0.00    +0.045 C 
ATOM     20  C   UNL     1      15.243 -21.723   5.283  1.00  0.00    +0.032 C 
ATOM     21  C   UNL     1      15.465 -20.019   3.529  1.00  0.00    +0.063 C 
ATOM     22  C   UNL     1      14.466 -20.902   6.013  1.00  0.00    +0.095 C 
ATOM     23  C   UNL     1      14.647 -19.155   4.306  1.00  0.00    +0.161 A 
ATOM     24  N   UNL     1      14.181 -19.632   5.521  1.00  0.00    -0.289 N 
ATOM     25  N   UNL     1      14.209 -17.928   4.125  1.00  0.00    -0.131 NA
ATOM     26  C   UNL     1      13.439 -18.612   6.042  1.00  0.00    +0.230 A 
ATOM     27  N   UNL     1      13.446 -17.585   5.222  1.00  0.00    -0.138 NA
ENDBRANCH  16  19
ENDBRANCH  12  15
ENDBRANCH   4  10
TORSDOF 5
ENDMDL
