MODEL 1
REMARK VINA RESULT:    -8.100      0.000      0.000
REMARK INTER + INTRA:         -11.631
REMARK INTER:                 -10.941
REMARK INTRA:                  -0.690
REMARK UNBOUND:                -0.690
REMARK SMILES CCOC(=O)NC(=O)c1ccsc1NC(=O)c1ccc(C(=O)N2CCCCC2)s1
REMARK SMILES IDX 4 1 5 2 6 3 7 4 8 5 3 7 2 8 1 9 9 10 10 11 13 12 11 13 12 14
REMARK SMILES IDX 14 15 15 16 16 17 17 19 18 20 29 21 19 22 20 23 21 24 22 25
REMARK SMILES IDX 23 26 24 27 28 28 25 29 27 30 26 31
REMARK H PARENT 6 6 14 18
ROOT
ATOM      1  C   UNL     1      15.936 -19.355  -0.193  1.00  0.00    +0.414 C 
ATOM      2  O   UNL     1      16.157 -18.509  -1.041  1.00  0.00    -0.224 OA
ATOM      3  N   UNL     1      15.400 -19.175   1.047  1.00  0.00    -0.257 N 
ATOM      4  C   UNL     1      15.179 -17.957   1.646  1.00  0.00    +0.263 C 
ATOM      5  O   UNL     1      15.465 -16.871   1.152  1.00  0.00    -0.269 OA
ATOM      6  H   UNL     1      15.289 -20.025   1.570  1.00  0.00    +0.176 HD
ENDROOT
BRANCH   1   7
ATOM      7  O   UNL     1      16.164 -20.686  -0.358  1.00  0.00    -0.450 OA
BRANCH   7   8
ATOM      8  C   UNL     1      15.688 -21.255  -1.589  1.00  0.00    +0.231 C 
ATOM      9  C   UNL     1      15.270 -22.697  -1.374  1.00  0.00    +0.049 C 
ENDBRANCH   7   8
ENDBRANCH   1   7
BRANCH   4  10
ATOM     10  C   UNL     1      14.585 -18.033   2.992  1.00  0.00    +0.075 A 
ATOM     11  C   UNL     1      13.542 -17.202   3.543  1.00  0.00    +0.028 A 
ATOM     12  C   UNL     1      15.014 -18.959   3.939  1.00  0.00    +0.108 A 
ATOM     13  C   UNL     1      13.218 -17.540   4.837  1.00  0.00    +0.068 A 
ATOM     14  S   UNL     1      14.158 -18.841   5.401  1.00  0.00    -0.126 S 
BRANCH  12  15
ATOM     15  N   UNL     1      16.014 -19.904   3.758  1.00  0.00    -0.312 N 
ATOM     16  C   UNL     1      15.950 -21.273   3.953  1.00  0.00    +0.266 C 
ATOM     17  O   UNL     1      14.963 -21.887   4.347  1.00  0.00    -0.268 OA
ATOM     18  H   UNL     1      16.919 -19.527   3.470  1.00  0.00    +0.171 HD
BRANCH  16  19
ATOM     19  C   UNL     1      17.196 -21.987   3.659  1.00  0.00    +0.093 A 
ATOM     20  C   UNL     1      17.635 -23.152   4.265  1.00  0.00    +0.026 A 
ATOM     21  S   UNL     1      18.307 -21.466   2.461  1.00  0.00    -0.125 S 
ATOM     22  C   UNL     1      18.885 -23.603   3.751  1.00  0.00    +0.026 A 
ATOM     23  C   UNL     1      19.378 -22.762   2.773  1.00  0.00    +0.093 A 
BRANCH  23  24
ATOM     24  C   UNL     1      20.597 -22.882   1.990  1.00  0.00    +0.263 C 
ATOM     25  O   UNL     1      21.709 -22.741   2.500  1.00  0.00    -0.268 OA
ATOM     26  N   UNL     1      20.470 -23.119   0.613  1.00  0.00    -0.338 N 
ATOM     27  C   UNL     1      21.702 -23.126  -0.172  1.00  0.00    +0.120 C 
ATOM     28  C   UNL     1      19.294 -23.698  -0.030  1.00  0.00    +0.120 C 
ATOM     29  C   UNL     1      21.468 -23.385  -1.661  1.00  0.00    +0.022 C 
ATOM     30  C   UNL     1      18.983 -22.976  -1.338  1.00  0.00    +0.022 C 
ATOM     31  C   UNL     1      20.233 -22.641  -2.159  1.00  0.00    +0.004 C 
ENDBRANCH  23  24
ENDBRANCH  16  19
ENDBRANCH  12  15
ENDBRANCH   4  10
TORSDOF 6
ENDMDL
MODEL 2
REMARK VINA RESULT:    -8.003      2.760      5.109
REMARK INTER + INTRA:         -11.500
REMARK INTER:                 -10.638
REMARK INTRA:                  -0.861
REMARK UNBOUND:                -0.690
REMARK SMILES CCOC(=O)NC(=O)c1ccsc1NC(=O)c1ccc(C(=O)N2CCCCC2)s1
REMARK SMILES IDX 4 1 5 2 6 3 7 4 8 5 3 7 2 8 1 9 9 10 10 11 13 12 11 13 12 14
REMARK SMILES IDX 14 15 15 16 16 17 17 19 18 20 29 21 19 22 20 23 21 24 22 25
REMARK SMILES IDX 23 26 24 27 28 28 25 29 27 30 26 31
REMARK H PARENT 6 6 14 18
ROOT
ATOM      1  C   UNL     1      14.498 -17.214   2.192  1.00  0.00    +0.414 C 
ATOM      2  O   UNL     1      14.987 -16.582   1.272  1.00  0.00    -0.224 OA
ATOM      3  N   UNL     1      14.977 -18.349   2.775  1.00  0.00    -0.257 N 
ATOM      4  C   UNL     1      16.023 -19.104   2.298  1.00  0.00    +0.263 C 
ATOM      5  O   UNL     1      16.643 -18.870   1.266  1.00  0.00    -0.269 OA
ATOM      6  H   UNL     1      14.414 -18.685   3.536  1.00  0.00    +0.176 HD
ENDROOT
BRANCH   1   7
ATOM      7  O   UNL     1      13.358 -16.860   2.846  1.00  0.00    -0.450 OA
BRANCH   7   8
ATOM      8  C   UNL     1      13.470 -16.731   4.273  1.00  0.00    +0.231 C 
ATOM      9  C   UNL     1      12.376 -17.527   4.960  1.00  0.00    +0.049 C 
ENDBRANCH   7   8
ENDBRANCH   1   7
BRANCH   4  10
ATOM     10  C   UNL     1      16.350 -20.286   3.115  1.00  0.00    +0.075 A 
ATOM     11  C   UNL     1      16.027 -20.515   4.502  1.00  0.00    +0.028 A 
ATOM     12  C   UNL     1      17.072 -21.361   2.604  1.00  0.00    +0.108 A 
ATOM     13  C   UNL     1      16.482 -21.729   4.963  1.00  0.00    +0.068 A 
ATOM     14  S   UNL     1      17.301 -22.595   3.749  1.00  0.00    -0.126 S 
BRANCH  12  15
ATOM     15  N   UNL     1      17.561 -21.472   1.310  1.00  0.00    -0.312 N 
ATOM     16  C   UNL     1      18.878 -21.451   0.883  1.00  0.00    +0.266 C 
ATOM     17  O   UNL     1      19.856 -21.311   1.610  1.00  0.00    -0.268 OA
ATOM     18  H   UNL     1      16.847 -21.550   0.583  1.00  0.00    +0.171 HD
BRANCH  16  19
ATOM     19  C   UNL     1      19.048 -21.601  -0.565  1.00  0.00    +0.093 A 
ATOM     20  C   UNL     1      18.376 -20.893  -1.547  1.00  0.00    +0.026 A 
ATOM     21  S   UNL     1      20.165 -22.700  -1.262  1.00  0.00    -0.125 S 
ATOM     22  C   UNL     1      18.772 -21.266  -2.863  1.00  0.00    +0.026 A 
ATOM     23  C   UNL     1      19.730 -22.261  -2.856  1.00  0.00    +0.093 A 
BRANCH  23  24
ATOM     24  C   UNL     1      20.407 -22.891  -3.977  1.00  0.00    +0.263 C 
ATOM     25  O   UNL     1      19.817 -23.657  -4.741  1.00  0.00    -0.268 OA
ATOM     26  N   UNL     1      21.776 -22.638  -4.143  1.00  0.00    -0.338 N 
ATOM     27  C   UNL     1      22.460 -23.367  -5.208  1.00  0.00    +0.120 C 
ATOM     28  C   UNL     1      22.484 -21.482  -3.599  1.00  0.00    +0.120 C 
ATOM     29  C   UNL     1      23.949 -23.033  -5.310  1.00  0.00    +0.022 C 
ATOM     30  C   UNL     1      23.845 -21.893  -3.044  1.00  0.00    +0.022 C 
ATOM     31  C   UNL     1      24.578 -22.909  -3.927  1.00  0.00    +0.004 C 
ENDBRANCH  23  24
ENDBRANCH  16  19
ENDBRANCH  12  15
ENDBRANCH   4  10
TORSDOF 6
ENDMDL
MODEL 3
REMARK VINA RESULT:    -7.968      1.485      1.893
REMARK INTER + INTRA:         -11.453
REMARK INTER:                 -10.942
REMARK INTRA:                  -0.511
REMARK UNBOUND:                -0.690
REMARK SMILES CCOC(=O)NC(=O)c1ccsc1NC(=O)c1ccc(C(=O)N2CCCCC2)s1
REMARK SMILES IDX 4 1 5 2 6 3 7 4 8 5 3 7 2 8 1 9 9 10 10 11 13 12 11 13 12 14
REMARK SMILES IDX 14 15 15 16 16 17 17 19 18 20 29 21 19 22 20 23 21 24 22 25
REMARK SMILES IDX 23 26 24 27 28 28 25 29 27 30 26 31
REMARK H PARENT 6 6 14 18
ROOT
ATOM      1  C   UNL     1      16.005 -19.258  -0.120  1.00  0.00    +0.414 C 
ATOM      2  O   UNL     1      16.367 -18.483  -0.988  1.00  0.00    -0.224 OA
ATOM      3  N   UNL     1      15.320 -18.971   1.023  1.00  0.00    -0.257 N 
ATOM      4  C   UNL     1      15.070 -17.707   1.501  1.00  0.00    +0.263 C 
ATOM      5  O   UNL     1      15.459 -16.668   0.975  1.00  0.00    -0.269 OA
ATOM      6  H   UNL     1      15.109 -19.777   1.584  1.00  0.00    +0.176 HD
ENDROOT
BRANCH   1   7
ATOM      7  O   UNL     1      16.201 -20.603  -0.161  1.00  0.00    -0.450 OA
BRANCH   7   8
ATOM      8  C   UNL     1      17.001 -21.086  -1.253  1.00  0.00    +0.231 C 
ATOM      9  C   UNL     1      16.786 -22.576  -1.442  1.00  0.00    +0.049 C 
ENDBRANCH   7   8
ENDBRANCH   1   7
BRANCH   4  10
ATOM     10  C   UNL     1      14.303 -17.666   2.759  1.00  0.00    +0.075 A 
ATOM     11  C   UNL     1      13.204 -16.793   3.092  1.00  0.00    +0.028 A 
ATOM     12  C   UNL     1      14.596 -18.504   3.831  1.00  0.00    +0.108 A 
ATOM     13  C   UNL     1      12.709 -17.018   4.357  1.00  0.00    +0.068 A 
ATOM     14  S   UNL     1      13.556 -18.261   5.152  1.00  0.00    -0.126 S 
BRANCH  12  15
ATOM     15  N   UNL     1      15.603 -19.458   3.866  1.00  0.00    -0.312 N 
ATOM     16  C   UNL     1      15.521 -20.783   4.262  1.00  0.00    +0.266 C 
ATOM     17  O   UNL     1      14.506 -21.337   4.673  1.00  0.00    -0.268 OA
ATOM     18  H   UNL     1      16.528 -19.122   3.590  1.00  0.00    +0.171 HD
BRANCH  16  19
ATOM     19  C   UNL     1      16.782 -21.523   4.168  1.00  0.00    +0.093 A 
ATOM     20  C   UNL     1      17.569 -21.938   5.230  1.00  0.00    +0.026 A 
ATOM     21  S   UNL     1      17.465 -22.015   2.674  1.00  0.00    -0.125 S 
ATOM     22  C   UNL     1      18.732 -22.645   4.809  1.00  0.00    +0.026 A 
ATOM     23  C   UNL     1      18.812 -22.742   3.434  1.00  0.00    +0.093 A 
BRANCH  23  24
ATOM     24  C   UNL     1      19.819 -23.402   2.619  1.00  0.00    +0.263 C 
ATOM     25  O   UNL     1      20.901 -22.868   2.370  1.00  0.00    -0.268 OA
ATOM     26  N   UNL     1      19.504 -24.657   2.078  1.00  0.00    -0.338 N 
ATOM     27  C   UNL     1      20.485 -25.252   1.173  1.00  0.00    +0.120 C 
ATOM     28  C   UNL     1      18.481 -25.559   2.600  1.00  0.00    +0.120 C 
ATOM     29  C   UNL     1      20.055 -26.614   0.627  1.00  0.00    +0.022 C 
ATOM     30  C   UNL     1      17.693 -26.200   1.460  1.00  0.00    +0.022 C 
ATOM     31  C   UNL     1      18.571 -26.621   0.277  1.00  0.00    +0.004 C 
ENDBRANCH  23  24
ENDBRANCH  16  19
ENDBRANCH  12  15
ENDBRANCH   4  10
TORSDOF 6
ENDMDL
MODEL 4
REMARK VINA RESULT:    -7.884      2.003      4.354
REMARK INTER + INTRA:         -11.340
REMARK INTER:                 -10.496
REMARK INTRA:                  -0.844
REMARK UNBOUND:                -0.690
REMARK SMILES CCOC(=O)NC(=O)c1ccsc1NC(=O)c1ccc(C(=O)N2CCCCC2)s1
REMARK SMILES IDX 4 1 5 2 6 3 7 4 8 5 3 7 2 8 1 9 9 10 10 11 13 12 11 13 12 14
REMARK SMILES IDX 14 15 15 16 16 17 17 19 18 20 29 21 19 22 20 23 21 24 22 25
REMARK SMILES IDX 23 26 24 27 28 28 25 29 27 30 26 31
REMARK H PARENT 6 6 14 18
ROOT
ATOM      1  C   UNL     1      16.673 -21.206   5.211  1.00  0.00    +0.414 C 
ATOM      2  O   UNL     1      17.595 -21.118   6.002  1.00  0.00    -0.224 OA
ATOM      3  N   UNL     1      15.731 -20.266   4.916  1.00  0.00    -0.257 N 
ATOM      4  C   UNL     1      15.540 -19.092   5.607  1.00  0.00    +0.263 C 
ATOM      5  O   UNL     1      16.174 -18.752   6.601  1.00  0.00    -0.269 OA
ATOM      6  H   UNL     1      15.076 -20.553   4.212  1.00  0.00    +0.176 HD
ENDROOT
BRANCH   1   7
ATOM      7  O   UNL     1      16.435 -22.293   4.428  1.00  0.00    -0.450 OA
BRANCH   7   8
ATOM      8  C   UNL     1      17.579 -23.107   4.121  1.00  0.00    +0.231 C 
ATOM      9  C   UNL     1      17.344 -23.879   2.837  1.00  0.00    +0.049 C 
ENDBRANCH   7   8
ENDBRANCH   1   7
BRANCH   4  10
ATOM     10  C   UNL     1      14.456 -18.242   5.084  1.00  0.00    +0.075 A 
ATOM     11  C   UNL     1      13.478 -17.499   5.840  1.00  0.00    +0.028 A 
ATOM     12  C   UNL     1      14.236 -18.079   3.719  1.00  0.00    +0.108 A 
ATOM     13  C   UNL     1      12.601 -16.803   5.039  1.00  0.00    +0.068 A 
ATOM     14  S   UNL     1      12.933 -17.041   3.388  1.00  0.00    -0.126 S 
BRANCH  12  15
ATOM     15  N   UNL     1      14.976 -18.663   2.701  1.00  0.00    -0.312 N 
ATOM     16  C   UNL     1      15.487 -18.069   1.558  1.00  0.00    +0.266 C 
ATOM     17  O   UNL     1      15.345 -16.890   1.249  1.00  0.00    -0.268 OA
ATOM     18  H   UNL     1      15.136 -19.667   2.802  1.00  0.00    +0.171 HD
BRANCH  16  19
ATOM     19  C   UNL     1      16.235 -18.978   0.685  1.00  0.00    +0.093 A 
ATOM     20  C   UNL     1      16.854 -18.643  -0.508  1.00  0.00    +0.026 A 
ATOM     21  S   UNL     1      16.473 -20.636   1.051  1.00  0.00    -0.125 S 
ATOM     22  C   UNL     1      17.509 -19.751  -1.118  1.00  0.00    +0.026 A 
ATOM     23  C   UNL     1      17.362 -20.911  -0.382  1.00  0.00    +0.093 A 
BRANCH  23  24
ATOM     24  C   UNL     1      17.895 -22.238  -0.646  1.00  0.00    +0.263 C 
ATOM     25  O   UNL     1      17.312 -23.034  -1.383  1.00  0.00    -0.268 OA
ATOM     26  N   UNL     1      19.081 -22.608   0.004  1.00  0.00    -0.338 N 
ATOM     27  C   UNL     1      19.539 -23.982  -0.187  1.00  0.00    +0.120 C 
ATOM     28  C   UNL     1      20.062 -21.674   0.550  1.00  0.00    +0.120 C 
ATOM     29  C   UNL     1      20.833 -24.298   0.563  1.00  0.00    +0.022 C 
ATOM     30  C   UNL     1      20.575 -22.157   1.904  1.00  0.00    +0.022 C 
ATOM     31  C   UNL     1      20.829 -23.668   1.952  1.00  0.00    +0.004 C 
ENDBRANCH  23  24
ENDBRANCH  16  19
ENDBRANCH  12  15
ENDBRANCH   4  10
TORSDOF 6
ENDMDL
MODEL 5
REMARK VINA RESULT:    -7.883      2.834      4.949
REMARK INTER + INTRA:         -11.339
REMARK INTER:                 -10.723
REMARK INTRA:                  -0.616
REMARK UNBOUND:                -0.690
REMARK SMILES CCOC(=O)NC(=O)c1ccsc1NC(=O)c1ccc(C(=O)N2CCCCC2)s1
REMARK SMILES IDX 4 1 5 2 6 3 7 4 8 5 3 7 2 8 1 9 9 10 10 11 13 12 11 13 12 14
REMARK SMILES IDX 14 15 15 16 16 17 17 19 18 20 29 21 19 22 20 23 21 24 22 25
REMARK SMILES IDX 23 26 24 27 28 28 25 29 27 30 26 31
REMARK H PARENT 6 6 14 18
ROOT
ATOM      1  C   UNL     1      14.642 -17.412   2.062  1.00  0.00    +0.414 C 
ATOM      2  O   UNL     1      15.182 -16.816   1.146  1.00  0.00    -0.224 OA
ATOM      3  N   UNL     1      15.088 -18.522   2.715  1.00  0.00    -0.257 N 
ATOM      4  C   UNL     1      16.158 -19.293   2.328  1.00  0.00    +0.263 C 
ATOM      5  O   UNL     1      16.835 -19.099   1.322  1.00  0.00    -0.269 OA
ATOM      6  H   UNL     1      14.484 -18.827   3.457  1.00  0.00    +0.176 HD
ENDROOT
BRANCH   1   7
ATOM      7  O   UNL     1      13.469 -17.033   2.637  1.00  0.00    -0.450 OA
BRANCH   7   8
ATOM      8  C   UNL     1      13.452 -17.018   4.074  1.00  0.00    +0.231 C 
ATOM      9  C   UNL     1      12.028 -16.901   4.581  1.00  0.00    +0.049 C 
ENDBRANCH   7   8
ENDBRANCH   1   7
BRANCH   4  10
ATOM     10  C   UNL     1      16.439 -20.441   3.208  1.00  0.00    +0.075 A 
ATOM     11  C   UNL     1      15.908 -20.690   4.525  1.00  0.00    +0.028 A 
ATOM     12  C   UNL     1      17.320 -21.455   2.842  1.00  0.00    +0.108 A 
ATOM     13  C   UNL     1      16.377 -21.862   5.076  1.00  0.00    +0.068 A 
ATOM     14  S   UNL     1      17.454 -22.662   4.031  1.00  0.00    -0.126 S 
BRANCH  12  15
ATOM     15  N   UNL     1      18.025 -21.530   1.649  1.00  0.00    -0.312 N 
ATOM     16  C   UNL     1      17.867 -22.433   0.611  1.00  0.00    +0.266 C 
ATOM     17  O   UNL     1      17.056 -23.353   0.591  1.00  0.00    -0.268 OA
ATOM     18  H   UNL     1      18.774 -20.843   1.545  1.00  0.00    +0.171 HD
BRANCH  16  19
ATOM     19  C   UNL     1      18.778 -22.225  -0.518  1.00  0.00    +0.093 A 
ATOM     20  C   UNL     1      18.824 -21.111  -1.339  1.00  0.00    +0.026 A 
ATOM     21  S   UNL     1      19.972 -23.369  -0.973  1.00  0.00    -0.125 S 
ATOM     22  C   UNL     1      19.830 -21.209  -2.343  1.00  0.00    +0.026 A 
ATOM     23  C   UNL     1      20.520 -22.403  -2.273  1.00  0.00    +0.093 A 
BRANCH  23  24
ATOM     24  C   UNL     1      21.626 -22.873  -3.092  1.00  0.00    +0.263 C 
ATOM     25  O   UNL     1      22.609 -23.424  -2.596  1.00  0.00    -0.268 OA
ATOM     26  N   UNL     1      21.564 -22.637  -4.473  1.00  0.00    -0.338 N 
ATOM     27  C   UNL     1      22.734 -23.017  -5.261  1.00  0.00    +0.120 C 
ATOM     28  C   UNL     1      20.337 -22.385  -5.224  1.00  0.00    +0.120 C 
ATOM     29  C   UNL     1      22.581 -22.717  -6.753  1.00  0.00    +0.022 C 
ATOM     30  C   UNL     1      20.551 -21.277  -6.252  1.00  0.00    +0.022 C 
ATOM     31  C   UNL     1      21.899 -21.372  -6.974  1.00  0.00    +0.004 C 
ENDBRANCH  23  24
ENDBRANCH  16  19
ENDBRANCH  12  15
ENDBRANCH   4  10
TORSDOF 6
ENDMDL
MODEL 6
REMARK VINA RESULT:    -7.813      3.301      5.513
REMARK INTER + INTRA:         -11.243
REMARK INTER:                 -10.239
REMARK INTRA:                  -1.005
REMARK UNBOUND:                -0.690
REMARK SMILES CCOC(=O)NC(=O)c1ccsc1NC(=O)c1ccc(C(=O)N2CCCCC2)s1
REMARK SMILES IDX 4 1 5 2 6 3 7 4 8 5 3 7 2 8 1 9 9 10 10 11 13 12 11 13 12 14
REMARK SMILES IDX 14 15 15 16 16 17 17 19 18 20 29 21 19 22 20 23 21 24 22 25
REMARK SMILES IDX 23 26 24 27 28 28 25 29 27 30 26 31
REMARK H PARENT 6 6 14 18
ROOT
ATOM      1  C   UNL     1      15.477 -19.059   5.796  1.00  0.00    +0.414 C 
ATOM      2  O   UNL     1      15.588 -20.036   6.517  1.00  0.00    -0.224 OA
ATOM      3  N   UNL     1      15.727 -18.975   4.459  1.00  0.00    -0.257 N 
ATOM      4  C   UNL     1      16.337 -19.948   3.703  1.00  0.00    +0.263 C 
ATOM      5  O   UNL     1      16.766 -21.011   4.143  1.00  0.00    -0.269 OA
ATOM      6  H   UNL     1      15.543 -18.068   4.067  1.00  0.00    +0.176 HD
ENDROOT
BRANCH   1   7
ATOM      7  O   UNL     1      15.033 -17.843   6.214  1.00  0.00    -0.450 OA
BRANCH   7   8
ATOM      8  C   UNL     1      13.823 -17.373   5.598  1.00  0.00    +0.231 C 
ATOM      9  C   UNL     1      12.637 -18.184   6.083  1.00  0.00    +0.049 C 
ENDBRANCH   7   8
ENDBRANCH   1   7
BRANCH   4  10
ATOM     10  C   UNL     1      16.487 -19.614   2.276  1.00  0.00    +0.075 A 
ATOM     11  C   UNL     1      15.634 -18.771   1.475  1.00  0.00    +0.028 A 
ATOM     12  C   UNL     1      17.521 -20.131   1.500  1.00  0.00    +0.108 A 
ATOM     13  C   UNL     1      16.061 -18.667   0.170  1.00  0.00    +0.068 A 
ATOM     14  S   UNL     1      17.470 -19.579  -0.105  1.00  0.00    -0.126 S 
BRANCH  12  15
ATOM     15  N   UNL     1      18.517 -20.992   1.941  1.00  0.00    -0.312 N 
ATOM     16  C   UNL     1      18.591 -22.367   1.796  1.00  0.00    +0.266 C 
ATOM     17  O   UNL     1      17.747 -23.068   1.247  1.00  0.00    -0.268 OA
ATOM     18  H   UNL     1      19.274 -20.547   2.463  1.00  0.00    +0.171 HD
BRANCH  16  19
ATOM     19  C   UNL     1      19.792 -22.974   2.377  1.00  0.00    +0.093 A 
ATOM     20  C   UNL     1      19.901 -23.526   3.642  1.00  0.00    +0.026 A 
ATOM     21  S   UNL     1      21.274 -23.107   1.524  1.00  0.00    -0.125 S 
ATOM     22  C   UNL     1      21.202 -24.044   3.907  1.00  0.00    +0.026 A 
ATOM     23  C   UNL     1      22.061 -23.862   2.840  1.00  0.00    +0.093 A 
BRANCH  23  24
ATOM     24  C   UNL     1      23.450 -24.267   2.702  1.00  0.00    +0.263 C 
ATOM     25  O   UNL     1      23.767 -25.297   2.106  1.00  0.00    -0.268 OA
ATOM     26  N   UNL     1      24.428 -23.469   3.313  1.00  0.00    -0.338 N 
ATOM     27  C   UNL     1      25.805 -23.953   3.256  1.00  0.00    +0.120 C 
ATOM     28  C   UNL     1      24.254 -22.066   3.677  1.00  0.00    +0.120 C 
ATOM     29  C   UNL     1      26.801 -23.024   3.953  1.00  0.00    +0.022 C 
ATOM     30  C   UNL     1      24.875 -21.780   5.042  1.00  0.00    +0.022 C 
ATOM     31  C   UNL     1      26.223 -22.477   5.253  1.00  0.00    +0.004 C 
ENDBRANCH  23  24
ENDBRANCH  16  19
ENDBRANCH  12  15
ENDBRANCH   4  10
TORSDOF 6
ENDMDL
MODEL 7
REMARK VINA RESULT:    -7.794      1.967      4.234
REMARK INTER + INTRA:         -11.217
REMARK INTER:                 -10.899
REMARK INTRA:                  -0.319
REMARK UNBOUND:                -0.690
REMARK SMILES CCOC(=O)NC(=O)c1ccsc1NC(=O)c1ccc(C(=O)N2CCCCC2)s1
REMARK SMILES IDX 4 1 5 2 6 3 7 4 8 5 3 7 2 8 1 9 9 10 10 11 13 12 11 13 12 14
REMARK SMILES IDX 14 15 15 16 16 17 17 19 18 20 29 21 19 22 20 23 21 24 22 25
REMARK SMILES IDX 23 26 24 27 28 28 25 29 27 30 26 31
REMARK H PARENT 6 6 14 18
ROOT
ATOM      1  C   UNL     1      17.002 -21.815   3.789  1.00  0.00    +0.414 C 
ATOM      2  O   UNL     1      17.116 -22.567   4.741  1.00  0.00    -0.224 OA
ATOM      3  N   UNL     1      16.256 -20.678   3.707  1.00  0.00    -0.257 N 
ATOM      4  C   UNL     1      15.334 -20.265   4.639  1.00  0.00    +0.263 C 
ATOM      5  O   UNL     1      15.039 -20.887   5.656  1.00  0.00    -0.269 OA
ATOM      6  H   UNL     1      16.333 -20.203   2.825  1.00  0.00    +0.176 HD
ENDROOT
BRANCH   1   7
ATOM      7  O   UNL     1      17.657 -21.970   2.606  1.00  0.00    -0.450 OA
BRANCH   7   8
ATOM      8  C   UNL     1      17.724 -23.313   2.099  1.00  0.00    +0.231 C 
ATOM      9  C   UNL     1      16.577 -23.570   1.141  1.00  0.00    +0.049 C 
ENDBRANCH   7   8
ENDBRANCH   1   7
BRANCH   4  10
ATOM     10  C   UNL     1      14.660 -18.995   4.318  1.00  0.00    +0.075 A 
ATOM     11  C   UNL     1      13.958 -18.117   5.221  1.00  0.00    +0.028 A 
ATOM     12  C   UNL     1      14.609 -18.493   3.020  1.00  0.00    +0.108 A 
ATOM     13  C   UNL     1      13.443 -17.006   4.593  1.00  0.00    +0.068 A 
ATOM     14  S   UNL     1      13.785 -17.011   2.927  1.00  0.00    -0.126 S 
BRANCH  12  15
ATOM     15  N   UNL     1      15.164 -19.087   1.895  1.00  0.00    -0.312 N 
ATOM     16  C   UNL     1      15.794 -18.478   0.822  1.00  0.00    +0.266 C 
ATOM     17  O   UNL     1      15.952 -17.269   0.687  1.00  0.00    -0.268 OA
ATOM     18  H   UNL     1      15.066 -20.103   1.849  1.00  0.00    +0.171 HD
BRANCH  16  19
ATOM     19  C   UNL     1      16.277 -19.406  -0.204  1.00  0.00    +0.093 A 
ATOM     20  C   UNL     1      15.564 -20.455  -0.761  1.00  0.00    +0.026 A 
ATOM     21  S   UNL     1      17.842 -19.298  -0.895  1.00  0.00    -0.125 S 
ATOM     22  C   UNL     1      16.310 -21.168  -1.742  1.00  0.00    +0.026 A 
ATOM     23  C   UNL     1      17.583 -20.655  -1.901  1.00  0.00    +0.093 A 
BRANCH  23  24
ATOM     24  C   UNL     1      18.635 -21.078  -2.811  1.00  0.00    +0.263 C 
ATOM     25  O   UNL     1      18.718 -20.631  -3.956  1.00  0.00    -0.268 OA
ATOM     26  N   UNL     1      19.536 -22.054  -2.362  1.00  0.00    -0.338 N 
ATOM     27  C   UNL     1      20.515 -22.545  -3.328  1.00  0.00    +0.120 C 
ATOM     28  C   UNL     1      19.809 -22.357  -0.959  1.00  0.00    +0.120 C 
ATOM     29  C   UNL     1      21.450 -23.610  -2.754  1.00  0.00    +0.022 C 
ATOM     30  C   UNL     1      19.920 -23.864  -0.743  1.00  0.00    +0.022 C 
ATOM     31  C   UNL     1      20.689 -24.582  -1.859  1.00  0.00    +0.004 C 
ENDBRANCH  23  24
ENDBRANCH  16  19
ENDBRANCH  12  15
ENDBRANCH   4  10
TORSDOF 6
ENDMDL
MODEL 8
REMARK VINA RESULT:    -7.657      3.037      8.104
REMARK INTER + INTRA:         -11.032
REMARK INTER:                 -10.674
REMARK INTRA:                  -0.358
REMARK UNBOUND:                -0.690
REMARK SMILES CCOC(=O)NC(=O)c1ccsc1NC(=O)c1ccc(C(=O)N2CCCCC2)s1
REMARK SMILES IDX 4 1 5 2 6 3 7 4 8 5 3 7 2 8 1 9 9 10 10 11 13 12 11 13 12 14
REMARK SMILES IDX 14 15 15 16 16 17 17 19 18 20 29 21 19 22 20 23 21 24 22 25
REMARK SMILES IDX 23 26 24 27 28 28 25 29 27 30 26 31
REMARK H PARENT 6 6 14 18
ROOT
ATOM      1  C   UNL     1      20.492 -22.194  -4.792  1.00  0.00    +0.414 C 
ATOM      2  O   UNL     1      20.165 -21.036  -4.985  1.00  0.00    -0.224 OA
ATOM      3  N   UNL     1      20.417 -22.901  -3.629  1.00  0.00    -0.257 N 
ATOM      4  C   UNL     1      20.126 -22.370  -2.395  1.00  0.00    +0.263 C 
ATOM      5  O   UNL     1      19.926 -21.179  -2.175  1.00  0.00    -0.269 OA
ATOM      6  H   UNL     1      20.725 -23.854  -3.712  1.00  0.00    +0.176 HD
ENDROOT
BRANCH   1   7
ATOM      7  O   UNL     1      20.976 -23.026  -5.754  1.00  0.00    -0.450 OA
BRANCH   7   8
ATOM      8  C   UNL     1      20.460 -22.818  -7.079  1.00  0.00    +0.231 C 
ATOM      9  C   UNL     1      21.407 -21.946  -7.881  1.00  0.00    +0.049 C 
ENDBRANCH   7   8
ENDBRANCH   1   7
BRANCH   4  10
ATOM     10  C   UNL     1      20.103 -23.348  -1.294  1.00  0.00    +0.075 A 
ATOM     11  C   UNL     1      20.869 -24.565  -1.182  1.00  0.00    +0.028 A 
ATOM     12  C   UNL     1      19.267 -23.200  -0.191  1.00  0.00    +0.108 A 
ATOM     13  C   UNL     1      20.607 -25.254  -0.019  1.00  0.00    +0.068 A 
ATOM     14  S   UNL     1      19.445 -24.460   0.935  1.00  0.00    -0.126 S 
BRANCH  12  15
ATOM     15  N   UNL     1      18.380 -22.155   0.024  1.00  0.00    -0.312 N 
ATOM     16  C   UNL     1      18.462 -21.134   0.955  1.00  0.00    +0.266 C 
ATOM     17  O   UNL     1      19.361 -20.997   1.779  1.00  0.00    -0.268 OA
ATOM     18  H   UNL     1      17.548 -22.165  -0.569  1.00  0.00    +0.171 HD
BRANCH  16  19
ATOM     19  C   UNL     1      17.351 -20.180   0.909  1.00  0.00    +0.093 A 
ATOM     20  C   UNL     1      16.569 -19.884  -0.195  1.00  0.00    +0.026 A 
ATOM     21  S   UNL     1      16.835 -19.285   2.278  1.00  0.00    -0.125 S 
ATOM     22  C   UNL     1      15.562 -18.918   0.086  1.00  0.00    +0.026 A 
ATOM     23  C   UNL     1      15.606 -18.487   1.397  1.00  0.00    +0.093 A 
BRANCH  23  24
ATOM     24  C   UNL     1      14.742 -17.537   2.080  1.00  0.00    +0.263 C 
ATOM     25  O   UNL     1      14.454 -16.449   1.580  1.00  0.00    -0.268 OA
ATOM     26  N   UNL     1      14.277 -17.877   3.359  1.00  0.00    -0.338 N 
ATOM     27  C   UNL     1      13.504 -16.864   4.072  1.00  0.00    +0.120 C 
ATOM     28  C   UNL     1      14.192 -19.238   3.883  1.00  0.00    +0.120 C 
ATOM     29  C   UNL     1      13.045 -17.318   5.458  1.00  0.00    +0.022 C 
ATOM     30  C   UNL     1      14.646 -19.286   5.340  1.00  0.00    +0.022 C 
ATOM     31  C   UNL     1      14.144 -18.099   6.170  1.00  0.00    +0.004 C 
ENDBRANCH  23  24
ENDBRANCH  16  19
ENDBRANCH  12  15
ENDBRANCH   4  10
TORSDOF 6
ENDMDL
MODEL 9
REMARK VINA RESULT:    -7.397      1.978      2.395
REMARK INTER + INTRA:         -10.682
REMARK INTER:                 -10.076
REMARK INTRA:                  -0.606
REMARK UNBOUND:                -0.690
REMARK SMILES CCOC(=O)NC(=O)c1ccsc1NC(=O)c1ccc(C(=O)N2CCCCC2)s1
REMARK SMILES IDX 4 1 5 2 6 3 7 4 8 5 3 7 2 8 1 9 9 10 10 11 13 12 11 13 12 14
REMARK SMILES IDX 14 15 15 16 16 17 17 19 18 20 29 21 19 22 20 23 21 24 22 25
REMARK SMILES IDX 23 26 24 27 28 28 25 29 27 30 26 31
REMARK H PARENT 6 6 14 18
ROOT
ATOM      1  C   UNL     1      16.335 -19.454  -0.535  1.00  0.00    +0.414 C 
ATOM      2  O   UNL     1      16.464 -18.555  -1.349  1.00  0.00    -0.224 OA
ATOM      3  N   UNL     1      15.815 -19.375   0.722  1.00  0.00    -0.257 N 
ATOM      4  C   UNL     1      15.504 -18.209   1.380  1.00  0.00    +0.263 C 
ATOM      5  O   UNL     1      15.685 -17.081   0.931  1.00  0.00    -0.269 OA
ATOM      6  H   UNL     1      15.788 -20.254   1.206  1.00  0.00    +0.176 HD
ENDROOT
BRANCH   1   7
ATOM      7  O   UNL     1      16.672 -20.751  -0.766  1.00  0.00    -0.450 OA
BRANCH   7   8
ATOM      8  C   UNL     1      16.857 -21.115  -2.144  1.00  0.00    +0.231 C 
ATOM      9  C   UNL     1      18.246 -21.687  -2.354  1.00  0.00    +0.049 C 
ENDBRANCH   7   8
ENDBRANCH   1   7
BRANCH   4  10
ATOM     10  C   UNL     1      14.950 -18.395   2.732  1.00  0.00    +0.075 A 
ATOM     11  C   UNL     1      13.829 -17.709   3.326  1.00  0.00    +0.028 A 
ATOM     12  C   UNL     1      15.503 -19.293   3.641  1.00  0.00    +0.108 A 
ATOM     13  C   UNL     1      13.571 -18.123   4.614  1.00  0.00    +0.068 A 
ATOM     14  S   UNL     1      14.668 -19.321   5.120  1.00  0.00    -0.126 S 
BRANCH  12  15
ATOM     15  N   UNL     1      16.602 -20.108   3.413  1.00  0.00    -0.312 N 
ATOM     16  C   UNL     1      16.660 -21.492   3.398  1.00  0.00    +0.266 C 
ATOM     17  O   UNL     1      15.712 -22.242   3.608  1.00  0.00    -0.268 OA
ATOM     18  H   UNL     1      17.485 -19.614   3.265  1.00  0.00    +0.171 HD
BRANCH  16  19
ATOM     19  C   UNL     1      17.989 -22.041   3.115  1.00  0.00    +0.093 A 
ATOM     20  C   UNL     1      18.846 -21.633   2.106  1.00  0.00    +0.026 A 
ATOM     21  S   UNL     1      18.696 -23.294   4.047  1.00  0.00    -0.125 S 
ATOM     22  C   UNL     1      20.071 -22.359   2.098  1.00  0.00    +0.026 A 
ATOM     23  C   UNL     1      20.115 -23.316   3.094  1.00  0.00    +0.093 A 
BRANCH  23  24
ATOM     24  C   UNL     1      21.188 -24.236   3.434  1.00  0.00    +0.263 C 
ATOM     25  O   UNL     1      21.916 -24.049   4.409  1.00  0.00    -0.268 OA
ATOM     26  N   UNL     1      21.403 -25.333   2.586  1.00  0.00    -0.338 N 
ATOM     27  C   UNL     1      22.553 -26.182   2.883  1.00  0.00    +0.120 C 
ATOM     28  C   UNL     1      20.408 -25.893   1.676  1.00  0.00    +0.120 C 
ATOM     29  C   UNL     1      22.714 -27.346   1.905  1.00  0.00    +0.022 C 
ATOM     30  C   UNL     1      21.044 -26.254   0.336  1.00  0.00    +0.022 C 
ATOM     31  C   UNL     1      22.425 -26.904   0.475  1.00  0.00    +0.004 C 
ENDBRANCH  23  24
ENDBRANCH  16  19
ENDBRANCH  12  15
ENDBRANCH   4  10
TORSDOF 6
ENDMDL
