MODEL 1
REMARK VINA RESULT:    -8.282      0.000      0.000
REMARK INTER + INTRA:         -12.906
REMARK INTER:                 -11.429
REMARK INTRA:                  -1.477
REMARK UNBOUND:                -1.477
REMARK SMILES COc1cccc(C(=O)CN2C(=O)NC(C)(c3ccc(S(N)(=O)=O)cc3)C2=O)c1
REMARK SMILES IDX 11 1 12 2 13 3 14 4 15 5 16 6 27 7 28 8 10 10 8 11 9 12 7 13
REMARK SMILES IDX 3 14 4 15 29 16 5 17 6 18 2 19 1 20 17 21 18 22 26 23 19 24
REMARK SMILES IDX 25 25 20 26 21 27 23 28 24 29 22 30
REMARK H PARENT 14 9 22 31 22 32
ROOT
ATOM      1  N   UNL     1      18.473 -23.418   0.980  1.00  0.00    -0.254 N 
ATOM      2  C   UNL     1      17.409 -24.248   1.111  1.00  0.00    +0.325 C 
ATOM      3  O   UNL     1      16.961 -25.014   0.275  1.00  0.00    -0.248 OA
ATOM      4  N   UNL     1      16.888 -24.104   2.373  1.00  0.00    -0.319 N 
ATOM      5  C   UNL     1      17.694 -23.238   3.212  1.00  0.00    +0.144 C 
ATOM      6  C   UNL     1      18.389 -24.074   4.291  1.00  0.00    +0.051 C 
ATOM      7  C   UNL     1      18.737 -22.783   2.163  1.00  0.00    +0.261 C 
ATOM      8  O   UNL     1      19.667 -22.009   2.360  1.00  0.00    -0.271 OA
ATOM      9  H   UNL     1      16.171 -24.736   2.702  1.00  0.00    +0.166 HD
ENDROOT
BRANCH   1  10
ATOM     10  C   UNL     1      19.329 -23.368  -0.183  1.00  0.00    +0.211 C 
BRANCH  10  11
ATOM     11  C   UNL     1      19.065 -22.070  -0.941  1.00  0.00    +0.182 C 
ATOM     12  O   UNL     1      19.972 -21.348  -1.359  1.00  0.00    -0.292 OA
BRANCH  11  13
ATOM     13  C   UNL     1      17.646 -21.661  -1.175  1.00  0.00    +0.023 A 
ATOM     14  C   UNL     1      15.736 -20.207  -0.781  1.00  0.00    +0.119 A 
ATOM     15  C   UNL     1      14.978 -20.963  -1.675  1.00  0.00    +0.046 A 
ATOM     16  C   UNL     1      17.069 -20.559  -0.534  1.00  0.00    +0.058 A 
ATOM     17  C   UNL     1      15.547 -22.063  -2.320  1.00  0.00    +0.005 A 
ATOM     18  C   UNL     1      16.875 -22.410  -2.072  1.00  0.00    +0.012 A 
BRANCH  14  19
ATOM     19  O   UNL     1      15.304 -19.110  -0.087  1.00  0.00    -0.497 OA
ATOM     20  C   UNL     1      16.304 -18.251   0.449  1.00  0.00    +0.278 C 
ENDBRANCH  14  19
ENDBRANCH  11  13
ENDBRANCH  10  11
ENDBRANCH   1  10
BRANCH   5  21
ATOM     21  C   UNL     1      16.902 -22.069   3.798  1.00  0.00    -0.013 A 
ATOM     22  C   UNL     1      16.562 -20.935   3.035  1.00  0.00    +0.008 A 
ATOM     23  C   UNL     1      16.490 -22.103   5.146  1.00  0.00    +0.008 A 
ATOM     24  C   UNL     1      15.835 -19.878   3.593  1.00  0.00    +0.022 A 
ATOM     25  C   UNL     1      15.766 -21.050   5.710  1.00  0.00    +0.022 A 
ATOM     26  C   UNL     1      15.432 -19.947   4.925  1.00  0.00    +0.082 A 
BRANCH  26  27
ATOM     27  S   UNL     1      14.521 -18.609   5.648  1.00  0.00    +0.238 S 
ATOM     28  O   UNL     1      13.192 -19.076   5.960  1.00  0.00    -0.207 OA
ATOM     29  O   UNL     1      15.364 -17.949   6.618  1.00  0.00    -0.207 OA
BRANCH  27  30
ATOM     30  N   UNL     1      14.407 -17.541   4.350  1.00  0.00    -0.225 NA
ATOM     31  H   UNL     1      13.420 -17.362   4.156  1.00  0.00    +0.137 HD
ATOM     32  H   UNL     1      14.931 -16.678   4.491  1.00  0.00    +0.137 HD
ENDBRANCH  27  30
ENDBRANCH  26  27
ENDBRANCH   5  21
TORSDOF 7
ENDMDL
MODEL 2
REMARK VINA RESULT:    -7.961      3.389      7.207
REMARK INTER + INTRA:         -12.463
REMARK INTER:                 -11.481
REMARK INTRA:                  -0.982
REMARK UNBOUND:                -1.477
REMARK SMILES COc1cccc(C(=O)CN2C(=O)NC(C)(c3ccc(S(N)(=O)=O)cc3)C2=O)c1
REMARK SMILES IDX 11 1 12 2 13 3 14 4 15 5 16 6 27 7 28 8 10 10 8 11 9 12 7 13
REMARK SMILES IDX 3 14 4 15 29 16 5 17 6 18 2 19 1 20 17 21 18 22 26 23 19 24
REMARK SMILES IDX 25 25 20 26 21 27 23 28 24 29 22 30
REMARK H PARENT 14 9 22 31 22 32
ROOT
ATOM      1  N   UNL     1      17.393 -21.380   2.783  1.00  0.00    -0.254 N 
ATOM      2  C   UNL     1      18.071 -22.523   3.057  1.00  0.00    +0.325 C 
ATOM      3  O   UNL     1      18.556 -22.858   4.124  1.00  0.00    -0.248 OA
ATOM      4  N   UNL     1      18.130 -23.285   1.917  1.00  0.00    -0.319 N 
ATOM      5  C   UNL     1      17.351 -22.723   0.830  1.00  0.00    +0.144 C 
ATOM      6  C   UNL     1      16.119 -23.596   0.579  1.00  0.00    +0.051 C 
ATOM      7  C   UNL     1      16.914 -21.399   1.502  1.00  0.00    +0.261 C 
ATOM      8  O   UNL     1      16.227 -20.523   0.990  1.00  0.00    -0.271 OA
ATOM      9  H   UNL     1      18.481 -24.232   1.956  1.00  0.00    +0.166 HD
ENDROOT
BRANCH   1  10
ATOM     10  C   UNL     1      17.053 -20.381   3.769  1.00  0.00    +0.211 C 
BRANCH  10  11
ATOM     11  C   UNL     1      15.656 -20.671   4.312  1.00  0.00    +0.182 C 
ATOM     12  O   UNL     1      15.287 -21.804   4.626  1.00  0.00    -0.292 OA
BRANCH  11  13
ATOM     13  C   UNL     1      14.700 -19.531   4.456  1.00  0.00    +0.023 A 
ATOM     14  C   UNL     1      13.653 -17.490   3.650  1.00  0.00    +0.119 A 
ATOM     15  C   UNL     1      12.879 -17.430   4.809  1.00  0.00    +0.046 A 
ATOM     16  C   UNL     1      14.561 -18.541   3.477  1.00  0.00    +0.058 A 
ATOM     17  C   UNL     1      13.010 -18.415   5.789  1.00  0.00    +0.005 A 
ATOM     18  C   UNL     1      13.916 -19.461   5.614  1.00  0.00    +0.012 A 
BRANCH  14  19
ATOM     19  O   UNL     1      13.621 -16.595   2.615  1.00  0.00    -0.497 OA
ATOM     20  C   UNL     1      14.644 -16.711   1.632  1.00  0.00    +0.278 C 
ENDBRANCH  14  19
ENDBRANCH  11  13
ENDBRANCH  10  11
ENDBRANCH   1  10
BRANCH   5  21
ATOM     21  C   UNL     1      18.174 -22.494  -0.438  1.00  0.00    -0.013 A 
ATOM     22  C   UNL     1      19.582 -22.510  -0.433  1.00  0.00    +0.008 A 
ATOM     23  C   UNL     1      17.523 -22.254  -1.666  1.00  0.00    +0.008 A 
ATOM     24  C   UNL     1      20.313 -22.300  -1.606  1.00  0.00    +0.022 A 
ATOM     25  C   UNL     1      18.247 -22.041  -2.841  1.00  0.00    +0.022 A 
ATOM     26  C   UNL     1      19.640 -22.077  -2.806  1.00  0.00    +0.082 A 
BRANCH  26  27
ATOM     27  S   UNL     1      20.555 -21.797  -4.299  1.00  0.00    +0.238 S 
ATOM     28  O   UNL     1      21.639 -20.891  -4.009  1.00  0.00    -0.207 OA
ATOM     29  O   UNL     1      20.753 -23.066  -4.962  1.00  0.00    -0.207 OA
BRANCH  27  30
ATOM     30  N   UNL     1      19.423 -20.973  -5.236  1.00  0.00    -0.225 NA
ATOM     31  H   UNL     1      19.614 -19.972  -5.179  1.00  0.00    +0.137 HD
ATOM     32  H   UNL     1      19.383 -21.301  -6.201  1.00  0.00    +0.137 HD
ENDBRANCH  27  30
ENDBRANCH  26  27
ENDBRANCH   5  21
TORSDOF 7
ENDMDL
MODEL 3
REMARK VINA RESULT:    -7.951      1.170      1.841
REMARK INTER + INTRA:         -12.450
REMARK INTER:                 -11.104
REMARK INTRA:                  -1.345
REMARK UNBOUND:                -1.477
REMARK SMILES COc1cccc(C(=O)CN2C(=O)NC(C)(c3ccc(S(N)(=O)=O)cc3)C2=O)c1
REMARK SMILES IDX 11 1 12 2 13 3 14 4 15 5 16 6 27 7 28 8 10 10 8 11 9 12 7 13
REMARK SMILES IDX 3 14 4 15 29 16 5 17 6 18 2 19 1 20 17 21 18 22 26 23 19 24
REMARK SMILES IDX 25 25 20 26 21 27 23 28 24 29 22 30
REMARK H PARENT 14 9 22 31 22 32
ROOT
ATOM      1  N   UNL     1      18.590 -23.262   0.983  1.00  0.00    -0.254 N 
ATOM      2  C   UNL     1      17.508 -24.079   0.969  1.00  0.00    +0.325 C 
ATOM      3  O   UNL     1      17.201 -24.888   0.110  1.00  0.00    -0.248 OA
ATOM      4  N   UNL     1      16.777 -23.863   2.112  1.00  0.00    -0.319 N 
ATOM      5  C   UNL     1      17.436 -22.956   3.031  1.00  0.00    +0.144 C 
ATOM      6  C   UNL     1      17.922 -23.734   4.258  1.00  0.00    +0.051 C 
ATOM      7  C   UNL     1      18.653 -22.564   2.157  1.00  0.00    +0.261 C 
ATOM      8  O   UNL     1      19.545 -21.784   2.472  1.00  0.00    -0.271 OA
ATOM      9  H   UNL     1      16.005 -24.472   2.344  1.00  0.00    +0.166 HD
ENDROOT
BRANCH   1  10
ATOM     10  C   UNL     1      19.636 -23.280  -0.014  1.00  0.00    +0.211 C 
BRANCH  10  11
ATOM     11  C   UNL     1      19.118 -22.626  -1.292  1.00  0.00    +0.182 C 
ATOM     12  O   UNL     1      19.497 -22.966  -2.415  1.00  0.00    -0.292 OA
BRANCH  11  13
ATOM     13  C   UNL     1      18.117 -21.523  -1.169  1.00  0.00    +0.023 A 
ATOM     14  C   UNL     1      15.863 -20.632  -1.377  1.00  0.00    +0.119 A 
ATOM     15  C   UNL     1      16.308 -19.398  -0.902  1.00  0.00    +0.046 A 
ATOM     16  C   UNL     1      16.770 -21.691  -1.508  1.00  0.00    +0.058 A 
ATOM     17  C   UNL     1      17.650 -19.223  -0.559  1.00  0.00    +0.005 A 
ATOM     18  C   UNL     1      18.550 -20.280  -0.691  1.00  0.00    +0.012 A 
BRANCH  14  19
ATOM     19  O   UNL     1      14.581 -20.937  -1.745  1.00  0.00    -0.497 OA
ATOM     20  C   UNL     1      14.410 -21.595  -2.995  1.00  0.00    +0.278 C 
ENDBRANCH  14  19
ENDBRANCH  11  13
ENDBRANCH  10  11
ENDBRANCH   1  10
BRANCH   5  21
ATOM     21  C   UNL     1      16.572 -21.753   3.406  1.00  0.00    -0.013 A 
ATOM     22  C   UNL     1      16.605 -20.548   2.678  1.00  0.00    +0.008 A 
ATOM     23  C   UNL     1      15.706 -21.827   4.517  1.00  0.00    +0.008 A 
ATOM     24  C   UNL     1      15.802 -19.461   3.039  1.00  0.00    +0.022 A 
ATOM     25  C   UNL     1      14.903 -20.744   4.885  1.00  0.00    +0.022 A 
ATOM     26  C   UNL     1      14.948 -19.569   4.135  1.00  0.00    +0.082 A 
BRANCH  26  27
ATOM     27  S   UNL     1      13.934 -18.196   4.611  1.00  0.00    +0.238 S 
ATOM     28  O   UNL     1      13.788 -17.319   3.476  1.00  0.00    -0.207 OA
ATOM     29  O   UNL     1      12.806 -18.695   5.363  1.00  0.00    -0.207 OA
BRANCH  27  30
ATOM     30  N   UNL     1      14.920 -17.427   5.741  1.00  0.00    -0.225 NA
ATOM     31  H   UNL     1      15.097 -18.069   6.515  1.00  0.00    +0.137 HD
ATOM     32  H   UNL     1      15.784 -17.063   5.341  1.00  0.00    +0.137 HD
ENDBRANCH  27  30
ENDBRANCH  26  27
ENDBRANCH   5  21
TORSDOF 7
ENDMDL
MODEL 4
REMARK VINA RESULT:    -7.788      3.507      7.890
REMARK INTER + INTRA:         -12.224
REMARK INTER:                 -11.359
REMARK INTRA:                  -0.865
REMARK UNBOUND:                -1.477
REMARK SMILES COc1cccc(C(=O)CN2C(=O)NC(C)(c3ccc(S(N)(=O)=O)cc3)C2=O)c1
REMARK SMILES IDX 11 1 12 2 13 3 14 4 15 5 16 6 27 7 28 8 10 10 8 11 9 12 7 13
REMARK SMILES IDX 3 14 4 15 29 16 5 17 6 18 2 19 1 20 17 21 18 22 26 23 19 24
REMARK SMILES IDX 25 25 20 26 21 27 23 28 24 29 22 30
REMARK H PARENT 14 9 22 31 22 32
ROOT
ATOM      1  N   UNL     1      17.187 -20.478   1.266  1.00  0.00    -0.254 N 
ATOM      2  C   UNL     1      16.925 -21.782   1.534  1.00  0.00    +0.325 C 
ATOM      3  O   UNL     1      16.627 -22.271   2.611  1.00  0.00    -0.248 OA
ATOM      4  N   UNL     1      17.040 -22.504   0.372  1.00  0.00    -0.319 N 
ATOM      5  C   UNL     1      17.260 -21.661  -0.788  1.00  0.00    +0.144 C 
ATOM      6  C   UNL     1      16.006 -21.663  -1.667  1.00  0.00    +0.051 C 
ATOM      7  C   UNL     1      17.386 -20.293  -0.074  1.00  0.00    +0.261 C 
ATOM      8  O   UNL     1      17.596 -19.214  -0.618  1.00  0.00    -0.271 OA
ATOM      9  H   UNL     1      16.753 -23.472   0.345  1.00  0.00    +0.166 HD
ENDROOT
BRANCH   1  10
ATOM     10  C   UNL     1      17.068 -19.409   2.231  1.00  0.00    +0.211 C 
BRANCH  10  11
ATOM     11  C   UNL     1      15.619 -18.929   2.266  1.00  0.00    +0.182 C 
ATOM     12  O   UNL     1      15.050 -18.460   1.279  1.00  0.00    -0.292 OA
BRANCH  11  13
ATOM     13  C   UNL     1      14.871 -19.026   3.556  1.00  0.00    +0.023 A 
ATOM     14  C   UNL     1      14.158 -20.238   5.541  1.00  0.00    +0.119 A 
ATOM     15  C   UNL     1      13.442 -19.120   5.966  1.00  0.00    +0.046 A 
ATOM     16  C   UNL     1      14.871 -20.188   4.337  1.00  0.00    +0.058 A 
ATOM     17  C   UNL     1      13.438 -17.957   5.193  1.00  0.00    +0.005 A 
ATOM     18  C   UNL     1      14.150 -17.909   3.995  1.00  0.00    +0.012 A 
BRANCH  14  19
ATOM     19  O   UNL     1      14.246 -21.434   6.200  1.00  0.00    -0.497 OA
ATOM     20  C   UNL     1      15.553 -21.896   6.525  1.00  0.00    +0.278 C 
ENDBRANCH  14  19
ENDBRANCH  11  13
ENDBRANCH  10  11
ENDBRANCH   1  10
BRANCH   5  21
ATOM     21  C   UNL     1      18.521 -22.035  -1.566  1.00  0.00    -0.013 A 
ATOM     22  C   UNL     1      19.578 -22.759  -0.982  1.00  0.00    +0.008 A 
ATOM     23  C   UNL     1      18.655 -21.651  -2.916  1.00  0.00    +0.008 A 
ATOM     24  C   UNL     1      20.722 -23.092  -1.715  1.00  0.00    +0.022 A 
ATOM     25  C   UNL     1      19.795 -21.977  -3.655  1.00  0.00    +0.022 A 
ATOM     26  C   UNL     1      20.819 -22.707  -3.051  1.00  0.00    +0.082 A 
BRANCH  26  27
ATOM     27  S   UNL     1      22.267 -23.111  -3.989  1.00  0.00    +0.238 S 
ATOM     28  O   UNL     1      22.413 -22.141  -5.048  1.00  0.00    -0.207 OA
ATOM     29  O   UNL     1      23.336 -23.431  -3.071  1.00  0.00    -0.207 OA
BRANCH  27  30
ATOM     30  N   UNL     1      21.818 -24.578  -4.685  1.00  0.00    -0.225 NA
ATOM     31  H   UNL     1      22.614 -25.217  -4.647  1.00  0.00    +0.137 HD
ATOM     32  H   UNL     1      20.982 -24.984  -4.266  1.00  0.00    +0.137 HD
ENDBRANCH  27  30
ENDBRANCH  26  27
ENDBRANCH   5  21
TORSDOF 7
ENDMDL
MODEL 5
REMARK VINA RESULT:    -7.704      2.543      3.738
REMARK INTER + INTRA:         -12.109
REMARK INTER:                 -11.228
REMARK INTRA:                  -0.881
REMARK UNBOUND:                -1.477
REMARK SMILES COc1cccc(C(=O)CN2C(=O)NC(C)(c3ccc(S(N)(=O)=O)cc3)C2=O)c1
REMARK SMILES IDX 11 1 12 2 13 3 14 4 15 5 16 6 27 7 28 8 10 10 8 11 9 12 7 13
REMARK SMILES IDX 3 14 4 15 29 16 5 17 6 18 2 19 1 20 17 21 18 22 26 23 19 24
REMARK SMILES IDX 25 25 20 26 21 27 23 28 24 29 22 30
REMARK H PARENT 14 9 22 31 22 32
ROOT
ATOM      1  N   UNL     1      18.320 -21.789   0.155  1.00  0.00    -0.254 N 
ATOM      2  C   UNL     1      17.144 -22.415  -0.097  1.00  0.00    +0.325 C 
ATOM      3  O   UNL     1      16.685 -22.719  -1.185  1.00  0.00    -0.248 OA
ATOM      4  N   UNL     1      16.518 -22.677   1.096  1.00  0.00    -0.319 N 
ATOM      5  C   UNL     1      17.342 -22.344   2.242  1.00  0.00    +0.144 C 
ATOM      6  C   UNL     1      17.799 -23.631   2.935  1.00  0.00    +0.051 C 
ATOM      7  C   UNL     1      18.543 -21.706   1.501  1.00  0.00    +0.261 C 
ATOM      8  O   UNL     1      19.544 -21.233   2.027  1.00  0.00    -0.271 OA
ATOM      9  H   UNL     1      15.690 -23.257   1.120  1.00  0.00    +0.166 HD
ENDROOT
BRANCH   1  10
ATOM     10  C   UNL     1      19.292 -21.445  -0.858  1.00  0.00    +0.211 C 
BRANCH  10  11
ATOM     11  C   UNL     1      20.019 -22.711  -1.301  1.00  0.00    +0.182 C 
ATOM     12  O   UNL     1      20.327 -23.611  -0.516  1.00  0.00    -0.292 OA
BRANCH  11  13
ATOM     13  C   UNL     1      20.378 -22.855  -2.745  1.00  0.00    +0.023 A 
ATOM     14  C   UNL     1      20.418 -22.050  -5.040  1.00  0.00    +0.119 A 
ATOM     15  C   UNL     1      21.092 -23.206  -5.432  1.00  0.00    +0.046 A 
ATOM     16  C   UNL     1      20.063 -21.878  -3.696  1.00  0.00    +0.058 A 
ATOM     17  C   UNL     1      21.412 -24.184  -4.489  1.00  0.00    +0.005 A 
ATOM     18  C   UNL     1      21.058 -24.010  -3.151  1.00  0.00    +0.012 A 
BRANCH  14  19
ATOM     19  O   UNL     1      20.047 -21.018  -5.858  1.00  0.00    -0.497 OA
ATOM     20  C   UNL     1      20.489 -21.077  -7.209  1.00  0.00    +0.278 C 
ENDBRANCH  14  19
ENDBRANCH  11  13
ENDBRANCH  10  11
ENDBRANCH   1  10
BRANCH   5  21
ATOM     21  C   UNL     1      16.662 -21.371   3.205  1.00  0.00    -0.013 A 
ATOM     22  C   UNL     1      16.428 -21.691   4.556  1.00  0.00    +0.008 A 
ATOM     23  C   UNL     1      16.244 -20.104   2.747  1.00  0.00    +0.008 A 
ATOM     24  C   UNL     1      15.805 -20.783   5.418  1.00  0.00    +0.022 A 
ATOM     25  C   UNL     1      15.620 -19.193   3.602  1.00  0.00    +0.022 A 
ATOM     26  C   UNL     1      15.414 -19.535   4.938  1.00  0.00    +0.082 A 
BRANCH  26  27
ATOM     27  S   UNL     1      14.613 -18.379   6.017  1.00  0.00    +0.238 S 
ATOM     28  O   UNL     1      13.299 -18.882   6.335  1.00  0.00    -0.207 OA
ATOM     29  O   UNL     1      15.557 -17.966   7.031  1.00  0.00    -0.207 OA
BRANCH  27  30
ATOM     30  N   UNL     1      14.430 -17.045   5.004  1.00  0.00    -0.225 NA
ATOM     31  H   UNL     1      14.816 -16.222   5.470  1.00  0.00    +0.137 HD
ATOM     32  H   UNL     1      14.832 -17.184   4.078  1.00  0.00    +0.137 HD
ENDBRANCH  27  30
ENDBRANCH  26  27
ENDBRANCH   5  21
TORSDOF 7
ENDMDL
MODEL 6
REMARK VINA RESULT:    -7.700      1.842      4.549
REMARK INTER + INTRA:         -12.103
REMARK INTER:                 -10.823
REMARK INTRA:                  -1.281
REMARK UNBOUND:                -1.477
REMARK SMILES COc1cccc(C(=O)CN2C(=O)NC(C)(c3ccc(S(N)(=O)=O)cc3)C2=O)c1
REMARK SMILES IDX 11 1 12 2 13 3 14 4 15 5 16 6 27 7 28 8 10 10 8 11 9 12 7 13
REMARK SMILES IDX 3 14 4 15 29 16 5 17 6 18 2 19 1 20 17 21 18 22 26 23 19 24
REMARK SMILES IDX 25 25 20 26 21 27 23 28 24 29 22 30
REMARK H PARENT 14 9 22 31 22 32
ROOT
ATOM      1  N   UNL     1      17.729 -21.837  -0.067  1.00  0.00    -0.254 N 
ATOM      2  C   UNL     1      18.777 -21.203   0.516  1.00  0.00    +0.325 C 
ATOM      3  O   UNL     1      19.865 -21.675   0.797  1.00  0.00    -0.248 OA
ATOM      4  N   UNL     1      18.427 -19.896   0.748  1.00  0.00    -0.319 N 
ATOM      5  C   UNL     1      17.133 -19.557   0.188  1.00  0.00    +0.144 C 
ATOM      6  C   UNL     1      17.323 -18.621  -1.009  1.00  0.00    +0.051 C 
ATOM      7  C   UNL     1      16.712 -20.959  -0.317  1.00  0.00    +0.261 C 
ATOM      8  O   UNL     1      15.657 -21.235  -0.878  1.00  0.00    -0.271 OA
ATOM      9  H   UNL     1      19.123 -19.231   1.057  1.00  0.00    +0.166 HD
ENDROOT
BRANCH   1  10
ATOM     10  C   UNL     1      17.767 -23.201  -0.542  1.00  0.00    +0.211 C 
BRANCH  10  11
ATOM     11  C   UNL     1      17.090 -24.105   0.484  1.00  0.00    +0.182 C 
ATOM     12  O   UNL     1      16.328 -25.020   0.165  1.00  0.00    -0.292 OA
BRANCH  11  13
ATOM     13  C   UNL     1      17.360 -23.859   1.934  1.00  0.00    +0.023 A 
ATOM     14  C   UNL     1      16.795 -22.888   4.091  1.00  0.00    +0.119 A 
ATOM     15  C   UNL     1      17.943 -23.453   4.645  1.00  0.00    +0.046 A 
ATOM     16  C   UNL     1      16.506 -23.094   2.736  1.00  0.00    +0.058 A 
ATOM     17  C   UNL     1      18.798 -24.220   3.852  1.00  0.00    +0.005 A 
ATOM     18  C   UNL     1      18.508 -24.424   2.503  1.00  0.00    +0.012 A 
BRANCH  14  19
ATOM     19  O   UNL     1      15.876 -22.120   4.753  1.00  0.00    -0.497 OA
ATOM     20  C   UNL     1      16.103 -21.897   6.140  1.00  0.00    +0.278 C 
ENDBRANCH  14  19
ENDBRANCH  11  13
ENDBRANCH  10  11
ENDBRANCH   1  10
BRANCH   5  21
ATOM     21  C   UNL     1      16.164 -18.991   1.225  1.00  0.00    -0.013 A 
ATOM     22  C   UNL     1      15.416 -17.820   0.994  1.00  0.00    +0.008 A 
ATOM     23  C   UNL     1      15.996 -19.644   2.463  1.00  0.00    +0.008 A 
ATOM     24  C   UNL     1      14.532 -17.322   1.958  1.00  0.00    +0.022 A 
ATOM     25  C   UNL     1      15.118 -19.152   3.431  1.00  0.00    +0.022 A 
ATOM     26  C   UNL     1      14.381 -17.998   3.167  1.00  0.00    +0.082 A 
BRANCH  26  27
ATOM     27  S   UNL     1      13.274 -17.372   4.402  1.00  0.00    +0.238 S 
ATOM     28  O   UNL     1      12.181 -16.702   3.741  1.00  0.00    -0.207 OA
ATOM     29  O   UNL     1      13.072 -18.396   5.401  1.00  0.00    -0.207 OA
BRANCH  27  30
ATOM     30  N   UNL     1      14.229 -16.201   5.147  1.00  0.00    -0.225 NA
ATOM     31  H   UNL     1      14.434 -16.501   6.101  1.00  0.00    +0.137 HD
ATOM     32  H   UNL     1      15.076 -15.980   4.625  1.00  0.00    +0.137 HD
ENDBRANCH  27  30
ENDBRANCH  26  27
ENDBRANCH   5  21
TORSDOF 7
ENDMDL
MODEL 7
REMARK VINA RESULT:    -7.493      4.213      6.855
REMARK INTER + INTRA:         -11.817
REMARK INTER:                 -10.902
REMARK INTRA:                  -0.915
REMARK UNBOUND:                -1.477
REMARK SMILES COc1cccc(C(=O)CN2C(=O)NC(C)(c3ccc(S(N)(=O)=O)cc3)C2=O)c1
REMARK SMILES IDX 11 1 12 2 13 3 14 4 15 5 16 6 27 7 28 8 10 10 8 11 9 12 7 13
REMARK SMILES IDX 3 14 4 15 29 16 5 17 6 18 2 19 1 20 17 21 18 22 26 23 19 24
REMARK SMILES IDX 25 25 20 26 21 27 23 28 24 29 22 30
REMARK H PARENT 14 9 22 31 22 32
ROOT
ATOM      1  N   UNL     1      18.455 -23.185   2.278  1.00  0.00    -0.254 N 
ATOM      2  C   UNL     1      18.755 -24.508   2.278  1.00  0.00    +0.325 C 
ATOM      3  O   UNL     1      18.006 -25.436   2.529  1.00  0.00    -0.248 OA
ATOM      4  N   UNL     1      20.076 -24.661   1.936  1.00  0.00    -0.319 N 
ATOM      5  C   UNL     1      20.700 -23.411   1.549  1.00  0.00    +0.144 C 
ATOM      6  C   UNL     1      20.974 -23.421   0.042  1.00  0.00    +0.051 C 
ATOM      7  C   UNL     1      19.526 -22.448   1.852  1.00  0.00    +0.261 C 
ATOM      8  O   UNL     1      19.536 -21.231   1.704  1.00  0.00    -0.271 OA
ATOM      9  H   UNL     1      20.450 -25.583   1.755  1.00  0.00    +0.166 HD
ENDROOT
BRANCH   1  10
ATOM     10  C   UNL     1      17.131 -22.651   2.499  1.00  0.00    +0.211 C 
BRANCH  10  11
ATOM     11  C   UNL     1      17.021 -22.174   3.944  1.00  0.00    +0.182 C 
ATOM     12  O   UNL     1      17.762 -22.585   4.839  1.00  0.00    -0.292 OA
BRANCH  11  13
ATOM     13  C   UNL     1      15.963 -21.173   4.283  1.00  0.00    +0.023 A 
ATOM     14  C   UNL     1      14.719 -19.130   3.844  1.00  0.00    +0.119 A 
ATOM     15  C   UNL     1      13.955 -19.350   4.990  1.00  0.00    +0.046 A 
ATOM     16  C   UNL     1      15.721 -20.043   3.494  1.00  0.00    +0.058 A 
ATOM     17  C   UNL     1      14.189 -20.476   5.781  1.00  0.00    +0.005 A 
ATOM     18  C   UNL     1      15.187 -21.385   5.429  1.00  0.00    +0.012 A 
BRANCH  14  19
ATOM     19  O   UNL     1      14.593 -18.073   2.985  1.00  0.00    -0.497 OA
ATOM     20  C   UNL     1      13.641 -17.073   3.329  1.00  0.00    +0.278 C 
ENDBRANCH  14  19
ENDBRANCH  11  13
ENDBRANCH  10  11
ENDBRANCH   1  10
BRANCH   5  21
ATOM     21  C   UNL     1      21.949 -23.089   2.368  1.00  0.00    -0.013 A 
ATOM     22  C   UNL     1      22.917 -22.164   1.930  1.00  0.00    +0.008 A 
ATOM     23  C   UNL     1      22.164 -23.727   3.607  1.00  0.00    +0.008 A 
ATOM     24  C   UNL     1      24.051 -21.883   2.699  1.00  0.00    +0.022 A 
ATOM     25  C   UNL     1      23.295 -23.454   4.379  1.00  0.00    +0.022 A 
ATOM     26  C   UNL     1      24.229 -22.523   3.924  1.00  0.00    +0.082 A 
BRANCH  26  27
ATOM     27  S   UNL     1      25.667 -22.185   4.903  1.00  0.00    +0.238 S 
ATOM     28  O   UNL     1      26.726 -23.069   4.481  1.00  0.00    -0.207 OA
ATOM     29  O   UNL     1      25.836 -20.753   4.994  1.00  0.00    -0.207 OA
BRANCH  27  30
ATOM     30  N   UNL     1      25.156 -22.675   6.431  1.00  0.00    -0.225 NA
ATOM     31  H   UNL     1      24.523 -21.968   6.809  1.00  0.00    +0.137 HD
ATOM     32  H   UNL     1      24.739 -23.605   6.438  1.00  0.00    +0.137 HD
ENDBRANCH  27  30
ENDBRANCH  26  27
ENDBRANCH   5  21
TORSDOF 7
ENDMDL
MODEL 8
REMARK VINA RESULT:    -7.435      3.312      7.185
REMARK INTER + INTRA:         -11.738
REMARK INTER:                 -11.023
REMARK INTRA:                  -0.715
REMARK UNBOUND:                -1.477
REMARK SMILES COc1cccc(C(=O)CN2C(=O)NC(C)(c3ccc(S(N)(=O)=O)cc3)C2=O)c1
REMARK SMILES IDX 11 1 12 2 13 3 14 4 15 5 16 6 27 7 28 8 10 10 8 11 9 12 7 13
REMARK SMILES IDX 3 14 4 15 29 16 5 17 6 18 2 19 1 20 17 21 18 22 26 23 19 24
REMARK SMILES IDX 25 25 20 26 21 27 23 28 24 29 22 30
REMARK H PARENT 14 9 22 31 22 32
ROOT
ATOM      1  N   UNL     1      17.533 -22.699   2.813  1.00  0.00    -0.254 N 
ATOM      2  C   UNL     1      18.786 -22.954   3.265  1.00  0.00    +0.325 C 
ATOM      3  O   UNL     1      19.249 -22.679   4.359  1.00  0.00    -0.248 OA
ATOM      4  N   UNL     1      19.489 -23.597   2.277  1.00  0.00    -0.319 N 
ATOM      5  C   UNL     1      18.664 -23.930   1.132  1.00  0.00    +0.144 C 
ATOM      6  C   UNL     1      18.451 -25.446   1.079  1.00  0.00    +0.051 C 
ATOM      7  C   UNL     1      17.348 -23.242   1.572  1.00  0.00    +0.261 C 
ATOM      8  O   UNL     1      16.303 -23.212   0.933  1.00  0.00    -0.271 OA
ATOM      9  H   UNL     1      20.401 -23.986   2.473  1.00  0.00    +0.166 HD
ENDROOT
BRANCH   1  10
ATOM     10  C   UNL     1      16.482 -22.117   3.616  1.00  0.00    +0.211 C 
BRANCH  10  11
ATOM     11  C   UNL     1      16.389 -20.625   3.309  1.00  0.00    +0.182 C 
ATOM     12  O   UNL     1      16.861 -20.125   2.286  1.00  0.00    -0.292 OA
BRANCH  11  13
ATOM     13  C   UNL     1      15.703 -19.739   4.299  1.00  0.00    +0.023 A 
ATOM     14  C   UNL     1      13.999 -18.115   4.909  1.00  0.00    +0.119 A 
ATOM     15  C   UNL     1      14.474 -18.110   6.221  1.00  0.00    +0.046 A 
ATOM     16  C   UNL     1      14.615 -18.930   3.952  1.00  0.00    +0.058 A 
ATOM     17  C   UNL     1      15.558 -18.916   6.574  1.00  0.00    +0.005 A 
ATOM     18  C   UNL     1      16.169 -19.728   5.619  1.00  0.00    +0.012 A 
BRANCH  14  19
ATOM     19  O   UNL     1      12.949 -17.378   4.432  1.00  0.00    -0.497 OA
ATOM     20  C   UNL     1      13.099 -16.806   3.137  1.00  0.00    +0.278 C 
ENDBRANCH  14  19
ENDBRANCH  11  13
ENDBRANCH  10  11
ENDBRANCH   1  10
BRANCH   5  21
ATOM     21  C   UNL     1      19.209 -23.370  -0.181  1.00  0.00    -0.013 A 
ATOM     22  C   UNL     1      18.842 -22.099  -0.665  1.00  0.00    +0.008 A 
ATOM     23  C   UNL     1      20.109 -24.133  -0.953  1.00  0.00    +0.008 A 
ATOM     24  C   UNL     1      19.357 -21.606  -1.869  1.00  0.00    +0.022 A 
ATOM     25  C   UNL     1      20.625 -23.648  -2.157  1.00  0.00    +0.022 A 
ATOM     26  C   UNL     1      20.253 -22.380  -2.603  1.00  0.00    +0.082 A 
BRANCH  26  27
ATOM     27  S   UNL     1      20.903 -21.773  -4.136  1.00  0.00    +0.238 S 
ATOM     28  O   UNL     1      21.866 -20.738  -3.848  1.00  0.00    -0.207 OA
ATOM     29  O   UNL     1      21.202 -22.901  -4.988  1.00  0.00    -0.207 OA
BRANCH  27  30
ATOM     30  N   UNL     1      19.543 -21.046  -4.813  1.00  0.00    -0.225 NA
ATOM     31  H   UNL     1      19.101 -20.454  -4.108  1.00  0.00    +0.137 HD
ATOM     32  H   UNL     1      19.744 -20.534  -5.671  1.00  0.00    +0.137 HD
ENDBRANCH  27  30
ENDBRANCH  26  27
ENDBRANCH   5  21
TORSDOF 7
ENDMDL
MODEL 9
REMARK VINA RESULT:    -7.421      3.530      4.869
REMARK INTER + INTRA:         -11.718
REMARK INTER:                 -10.745
REMARK INTRA:                  -0.973
REMARK UNBOUND:                -1.477
REMARK SMILES COc1cccc(C(=O)CN2C(=O)NC(C)(c3ccc(S(N)(=O)=O)cc3)C2=O)c1
REMARK SMILES IDX 11 1 12 2 13 3 14 4 15 5 16 6 27 7 28 8 10 10 8 11 9 12 7 13
REMARK SMILES IDX 3 14 4 15 29 16 5 17 6 18 2 19 1 20 17 21 18 22 26 23 19 24
REMARK SMILES IDX 25 25 20 26 21 27 23 28 24 29 22 30
REMARK H PARENT 14 9 22 31 22 32
ROOT
ATOM      1  N   UNL     1      19.165 -21.494  -1.512  1.00  0.00    -0.254 N 
ATOM      2  C   UNL     1      18.056 -21.033  -2.143  1.00  0.00    +0.325 C 
ATOM      3  O   UNL     1      17.999 -20.468  -3.221  1.00  0.00    -0.248 OA
ATOM      4  N   UNL     1      16.959 -21.311  -1.365  1.00  0.00    -0.319 N 
ATOM      5  C   UNL     1      17.288 -22.116  -0.205  1.00  0.00    +0.144 C 
ATOM      6  C   UNL     1      16.718 -23.526  -0.382  1.00  0.00    +0.051 C 
ATOM      7  C   UNL     1      18.827 -22.160  -0.367  1.00  0.00    +0.261 C 
ATOM      8  O   UNL     1      19.615 -22.723   0.385  1.00  0.00    -0.271 OA
ATOM      9  H   UNL     1      16.028 -21.161  -1.729  1.00  0.00    +0.166 HD
ENDROOT
BRANCH   1  10
ATOM     10  C   UNL     1      20.494 -21.463  -2.078  1.00  0.00    +0.211 C 
BRANCH  10  11
ATOM     11  C   UNL     1      20.678 -22.677  -2.985  1.00  0.00    +0.182 C 
ATOM     12  O   UNL     1      20.727 -23.830  -2.552  1.00  0.00    -0.292 OA
BRANCH  11  13
ATOM     13  C   UNL     1      20.813 -22.449  -4.456  1.00  0.00    +0.023 A 
ATOM     14  C   UNL     1      21.745 -21.277  -6.373  1.00  0.00    +0.119 A 
ATOM     15  C   UNL     1      21.009 -22.094  -7.230  1.00  0.00    +0.046 A 
ATOM     16  C   UNL     1      21.645 -21.457  -4.988  1.00  0.00    +0.058 A 
ATOM     17  C   UNL     1      20.178 -23.087  -6.707  1.00  0.00    +0.005 A 
ATOM     18  C   UNL     1      20.081 -23.265  -5.328  1.00  0.00    +0.012 A 
BRANCH  14  19
ATOM     19  O   UNL     1      22.594 -20.272  -6.751  1.00  0.00    -0.497 OA
ATOM     20  C   UNL     1      23.775 -20.655  -7.447  1.00  0.00    +0.278 C 
ENDBRANCH  14  19
ENDBRANCH  11  13
ENDBRANCH  10  11
ENDBRANCH   1  10
BRANCH   5  21
ATOM     21  C   UNL     1      16.854 -21.471   1.111  1.00  0.00    -0.013 A 
ATOM     22  C   UNL     1      16.605 -20.090   1.225  1.00  0.00    +0.008 A 
ATOM     23  C   UNL     1      16.695 -22.265   2.265  1.00  0.00    +0.008 A 
ATOM     24  C   UNL     1      16.207 -19.523   2.440  1.00  0.00    +0.022 A 
ATOM     25  C   UNL     1      16.300 -21.705   3.483  1.00  0.00    +0.022 A 
ATOM     26  C   UNL     1      16.047 -20.336   3.560  1.00  0.00    +0.082 A 
BRANCH  26  27
ATOM     27  S   UNL     1      15.555 -19.629   5.109  1.00  0.00    +0.238 S 
ATOM     28  O   UNL     1      14.565 -20.488   5.711  1.00  0.00    -0.207 OA
ATOM     29  O   UNL     1      16.739 -19.191   5.812  1.00  0.00    -0.207 OA
BRANCH  27  30
ATOM     30  N   UNL     1      14.785 -18.219   4.605  1.00  0.00    -0.225 NA
ATOM     31  H   UNL     1      14.168 -18.442   3.822  1.00  0.00    +0.137 HD
ATOM     32  H   UNL     1      14.292 -17.738   5.356  1.00  0.00    +0.137 HD
ENDBRANCH  27  30
ENDBRANCH  26  27
ENDBRANCH   5  21
TORSDOF 7
ENDMDL
