MODEL 1
REMARK VINA RESULT:    -8.410      0.000      0.000
REMARK INTER + INTRA:         -12.753
REMARK INTER:                 -11.114
REMARK INTRA:                  -1.640
REMARK UNBOUND:                -1.640
REMARK SMILES CC1(c2ccc(S(N)(=O)=O)cc2)NC(=O)N(CC(=O)c2ccc(F)cc2)C1=O
REMARK SMILES IDX 1 1 2 2 13 3 14 4 15 5 16 6 27 7 28 8 3 10 4 11 12 12 5 13
REMARK SMILES IDX 11 14 6 15 7 16 9 17 10 18 8 19 17 22 18 23 19 24 20 25
REMARK SMILES IDX 21 26 26 27 22 28 25 29 23 30 24 31
REMARK H PARENT 13 9 8 20 8 21
ROOT
ATOM      1  C   UNL     1      18.399 -23.829   4.113  1.00  0.00    +0.051 C 
ATOM      2  C   UNL     1      17.618 -23.047   3.052  1.00  0.00    +0.144 C 
ATOM      3  N   UNL     1      16.822 -23.966   2.264  1.00  0.00    -0.319 N 
ATOM      4  C   UNL     1      17.293 -24.109   0.981  1.00  0.00    +0.325 C 
ATOM      5  O   UNL     1      16.847 -24.908   0.176  1.00  0.00    -0.248 OA
ATOM      6  N   UNL     1      18.310 -23.231   0.791  1.00  0.00    -0.254 N 
ATOM      7  C   UNL     1      18.594 -22.564   1.950  1.00  0.00    +0.261 C 
ATOM      8  O   UNL     1      19.493 -21.743   2.092  1.00  0.00    -0.271 OA
ATOM      9  H   UNL     1      16.148 -24.622   2.633  1.00  0.00    +0.166 HD
ENDROOT
BRANCH   2  10
ATOM     10  C   UNL     1      16.798 -21.906   3.650  1.00  0.00    -0.013 A 
ATOM     11  C   UNL     1      16.483 -20.744   2.920  1.00  0.00    +0.008 A 
ATOM     12  C   UNL     1      16.334 -21.993   4.979  1.00  0.00    +0.008 A 
ATOM     13  C   UNL     1      15.731 -19.713   3.490  1.00  0.00    +0.022 A 
ATOM     14  C   UNL     1      15.581 -20.967   5.556  1.00  0.00    +0.022 A 
ATOM     15  C   UNL     1      15.276 -19.835   4.802  1.00  0.00    +0.082 A 
BRANCH  15  16
ATOM     16  S   UNL     1      14.336 -18.516   5.525  1.00  0.00    +0.238 S 
ATOM     17  O   UNL     1      12.994 -18.990   5.772  1.00  0.00    -0.207 OA
ATOM     18  O   UNL     1      15.140 -17.885   6.543  1.00  0.00    -0.207 OA
BRANCH  16  19
ATOM     19  N   UNL     1      14.206 -17.448   4.228  1.00  0.00    -0.225 NA
ATOM     20  H   UNL     1      15.046 -16.889   4.080  1.00  0.00    +0.137 HD
ATOM     21  H   UNL     1      13.946 -17.976   3.393  1.00  0.00    +0.137 HD
ENDBRANCH  16  19
ENDBRANCH  15  16
ENDBRANCH   2  10
BRANCH   6  22
ATOM     22  C   UNL     1      19.109 -23.163  -0.410  1.00  0.00    +0.211 C 
BRANCH  22  23
ATOM     23  C   UNL     1      18.338 -22.394  -1.480  1.00  0.00    +0.182 C 
ATOM     24  O   UNL     1      18.377 -22.695  -2.673  1.00  0.00    -0.292 OA
BRANCH  23  25
ATOM     25  C   UNL     1      17.514 -21.221  -1.055  1.00  0.00    +0.020 A 
ATOM     26  C   UNL     1      16.113 -21.264  -1.002  1.00  0.00    +0.015 A 
ATOM     27  C   UNL     1      18.179 -20.038  -0.693  1.00  0.00    +0.015 A 
ATOM     28  C   UNL     1      15.393 -20.135  -0.596  1.00  0.00    +0.040 A 
ATOM     29  C   UNL     1      17.456 -18.913  -0.289  1.00  0.00    +0.040 A 
ATOM     30  C   UNL     1      16.069 -18.973  -0.244  1.00  0.00    +0.123 A 
ATOM     31  F   UNL     1      15.374 -17.897   0.143  1.00  0.00    -0.207 F 
ENDBRANCH  23  25
ENDBRANCH  22  23
ENDBRANCH   6  22
TORSDOF 6
ENDMDL
MODEL 2
REMARK VINA RESULT:    -8.034      3.620      7.222
REMARK INTER + INTRA:         -12.257
REMARK INTER:                 -11.476
REMARK INTRA:                  -0.781
REMARK UNBOUND:                -1.640
REMARK SMILES CC1(c2ccc(S(N)(=O)=O)cc2)NC(=O)N(CC(=O)c2ccc(F)cc2)C1=O
REMARK SMILES IDX 1 1 2 2 13 3 14 4 15 5 16 6 27 7 28 8 3 10 4 11 12 12 5 13
REMARK SMILES IDX 11 14 6 15 7 16 9 17 10 18 8 19 17 22 18 23 19 24 20 25
REMARK SMILES IDX 21 26 26 27 22 28 25 29 23 30 24 31
REMARK H PARENT 13 9 8 20 8 21
ROOT
ATOM      1  C   UNL     1      16.129 -23.434   0.589  1.00  0.00    +0.051 C 
ATOM      2  C   UNL     1      17.320 -22.505   0.843  1.00  0.00    +0.144 C 
ATOM      3  N   UNL     1      18.049 -22.959   2.010  1.00  0.00    -0.319 N 
ATOM      4  C   UNL     1      17.903 -22.118   3.086  1.00  0.00    +0.325 C 
ATOM      5  O   UNL     1      18.336 -22.355   4.201  1.00  0.00    -0.248 OA
ATOM      6  N   UNL     1      17.209 -21.021   2.690  1.00  0.00    -0.254 N 
ATOM      7  C   UNL     1      16.805 -21.150   1.390  1.00  0.00    +0.261 C 
ATOM      8  O   UNL     1      16.124 -20.336   0.777  1.00  0.00    -0.271 OA
ATOM      9  H   UNL     1      18.428 -23.887   2.138  1.00  0.00    +0.166 HD
ENDROOT
BRANCH   2  10
ATOM     10  C   UNL     1      18.207 -22.340  -0.390  1.00  0.00    -0.013 A 
ATOM     11  C   UNL     1      19.613 -22.362  -0.311  1.00  0.00    +0.008 A 
ATOM     12  C   UNL     1      17.622 -22.153  -1.659  1.00  0.00    +0.008 A 
ATOM     13  C   UNL     1      20.403 -22.208  -1.455  1.00  0.00    +0.022 A 
ATOM     14  C   UNL     1      18.405 -21.998  -2.806  1.00  0.00    +0.022 A 
ATOM     15  C   UNL     1      19.794 -22.037  -2.697  1.00  0.00    +0.082 A 
BRANCH  15  16
ATOM     16  S   UNL     1      20.803 -21.827  -4.140  1.00  0.00    +0.238 S 
ATOM     17  O   UNL     1      21.814 -20.835  -3.855  1.00  0.00    -0.207 OA
ATOM     18  O   UNL     1      21.118 -23.130  -4.672  1.00  0.00    -0.207 OA
BRANCH  16  19
ATOM     19  N   UNL     1      19.724 -21.081  -5.198  1.00  0.00    -0.225 NA
ATOM     20  H   UNL     1      19.245 -21.736  -5.815  1.00  0.00    +0.137 HD
ATOM     21  H   UNL     1      19.067 -20.519  -4.653  1.00  0.00    +0.137 HD
ENDBRANCH  16  19
ENDBRANCH  15  16
ENDBRANCH   2  10
BRANCH   6  22
ATOM     22  C   UNL     1      16.785 -19.964   3.578  1.00  0.00    +0.211 C 
BRANCH  22  23
ATOM     23  C   UNL     1      15.416 -20.315   4.155  1.00  0.00    +0.182 C 
ATOM     24  O   UNL     1      15.096 -21.465   4.455  1.00  0.00    -0.292 OA
BRANCH  23  25
ATOM     25  C   UNL     1      14.425 -19.212   4.348  1.00  0.00    +0.020 A 
ATOM     26  C   UNL     1      13.552 -19.168   5.445  1.00  0.00    +0.015 A 
ATOM     27  C   UNL     1      14.377 -18.186   3.390  1.00  0.00    +0.015 A 
ATOM     28  C   UNL     1      12.644 -18.111   5.575  1.00  0.00    +0.040 A 
ATOM     29  C   UNL     1      13.468 -17.133   3.524  1.00  0.00    +0.040 A 
ATOM     30  C   UNL     1      12.611 -17.106   4.615  1.00  0.00    +0.123 A 
ATOM     31  F   UNL     1      11.739 -16.098   4.746  1.00  0.00    -0.207 F 
ENDBRANCH  23  25
ENDBRANCH  22  23
ENDBRANCH   6  22
TORSDOF 6
ENDMDL
MODEL 3
REMARK VINA RESULT:    -7.504      3.952      7.641
REMARK INTER + INTRA:         -11.556
REMARK INTER:                 -10.851
REMARK INTRA:                  -0.706
REMARK UNBOUND:                -1.640
REMARK SMILES CC1(c2ccc(S(N)(=O)=O)cc2)NC(=O)N(CC(=O)c2ccc(F)cc2)C1=O
REMARK SMILES IDX 1 1 2 2 13 3 14 4 15 5 16 6 27 7 28 8 3 10 4 11 12 12 5 13
REMARK SMILES IDX 11 14 6 15 7 16 9 17 10 18 8 19 17 22 18 23 19 24 20 25
REMARK SMILES IDX 21 26 26 27 22 28 25 29 23 30 24 31
REMARK H PARENT 13 9 8 20 8 21
ROOT
ATOM      1  C   UNL     1      15.810 -21.707  -1.605  1.00  0.00    +0.051 C 
ATOM      2  C   UNL     1      17.060 -21.740  -0.721  1.00  0.00    +0.144 C 
ATOM      3  N   UNL     1      16.812 -22.575   0.437  1.00  0.00    -0.319 N 
ATOM      4  C   UNL     1      16.714 -21.852   1.600  1.00  0.00    +0.325 C 
ATOM      5  O   UNL     1      16.402 -22.331   2.677  1.00  0.00    -0.248 OA
ATOM      6  N   UNL     1      17.012 -20.555   1.333  1.00  0.00    -0.254 N 
ATOM      7  C   UNL     1      17.219 -20.374  -0.006  1.00  0.00    +0.261 C 
ATOM      8  O   UNL     1      17.461 -19.301  -0.547  1.00  0.00    -0.271 OA
ATOM      9  H   UNL     1      16.504 -23.537   0.409  1.00  0.00    +0.166 HD
ENDROOT
BRANCH   2  10
ATOM     10  C   UNL     1      18.314 -22.145  -1.494  1.00  0.00    -0.013 A 
ATOM     11  C   UNL     1      18.532 -21.755  -2.829  1.00  0.00    +0.008 A 
ATOM     12  C   UNL     1      19.298 -22.942  -0.873  1.00  0.00    +0.008 A 
ATOM     13  C   UNL     1      19.688 -22.139  -3.516  1.00  0.00    +0.022 A 
ATOM     14  C   UNL     1      20.455 -23.331  -1.552  1.00  0.00    +0.022 A 
ATOM     15  C   UNL     1      20.648 -22.918  -2.869  1.00  0.00    +0.082 A 
BRANCH  15  16
ATOM     16  S   UNL     1      22.104 -23.415  -3.750  1.00  0.00    +0.238 S 
ATOM     17  O   UNL     1      22.669 -22.253  -4.398  1.00  0.00    -0.207 OA
ATOM     18  O   UNL     1      22.877 -24.287  -2.901  1.00  0.00    -0.207 OA
BRANCH  16  19
ATOM     19  N   UNL     1      21.444 -24.347  -4.989  1.00  0.00    -0.225 NA
ATOM     20  H   UNL     1      21.852 -24.151  -5.902  1.00  0.00    +0.137 HD
ATOM     21  H   UNL     1      21.525 -25.333  -4.737  1.00  0.00    +0.137 HD
ENDBRANCH  16  19
ENDBRANCH  15  16
ENDBRANCH   2  10
BRANCH   6  22
ATOM     22  C   UNL     1      16.920 -19.485   2.299  1.00  0.00    +0.211 C 
BRANCH  22  23
ATOM     23  C   UNL     1      15.527 -18.866   2.227  1.00  0.00    +0.182 C 
ATOM     24  O   UNL     1      15.053 -18.413   1.184  1.00  0.00    -0.292 OA
BRANCH  23  25
ATOM     25  C   UNL     1      14.716 -18.797   3.481  1.00  0.00    +0.020 A 
ATOM     26  C   UNL     1      14.704 -19.832   4.428  1.00  0.00    +0.015 A 
ATOM     27  C   UNL     1      13.943 -17.647   3.711  1.00  0.00    +0.015 A 
ATOM     28  C   UNL     1      13.926 -19.713   5.585  1.00  0.00    +0.040 A 
ATOM     29  C   UNL     1      13.167 -17.533   4.867  1.00  0.00    +0.040 A 
ATOM     30  C   UNL     1      13.166 -18.568   5.793  1.00  0.00    +0.123 A 
ATOM     31  F   UNL     1      12.424 -18.462   6.902  1.00  0.00    -0.207 F 
ENDBRANCH  23  25
ENDBRANCH  22  23
ENDBRANCH   6  22
TORSDOF 6
ENDMDL
MODEL 4
REMARK VINA RESULT:    -7.492      3.636      4.657
REMARK INTER + INTRA:         -11.541
REMARK INTER:                 -10.657
REMARK INTRA:                  -0.884
REMARK UNBOUND:                -1.640
REMARK SMILES CC1(c2ccc(S(N)(=O)=O)cc2)NC(=O)N(CC(=O)c2ccc(F)cc2)C1=O
REMARK SMILES IDX 1 1 2 2 13 3 14 4 15 5 16 6 27 7 28 8 3 10 4 11 12 12 5 13
REMARK SMILES IDX 11 14 6 15 7 16 9 17 10 18 8 19 17 22 18 23 19 24 20 25
REMARK SMILES IDX 21 26 26 27 22 28 25 29 23 30 24 31
REMARK H PARENT 13 9 8 20 8 21
ROOT
ATOM      1  C   UNL     1      16.486 -23.483  -0.431  1.00  0.00    +0.051 C 
ATOM      2  C   UNL     1      17.195 -22.168  -0.095  1.00  0.00    +0.144 C 
ATOM      3  N   UNL     1      16.928 -21.195  -1.135  1.00  0.00    -0.319 N 
ATOM      4  C   UNL     1      18.034 -20.925  -1.903  1.00  0.00    +0.325 C 
ATOM      5  O   UNL     1      18.018 -20.222  -2.900  1.00  0.00    -0.248 OA
ATOM      6  N   UNL     1      19.103 -21.567  -1.368  1.00  0.00    -0.254 N 
ATOM      7  C   UNL     1      18.720 -22.338  -0.307  1.00  0.00    +0.261 C 
ATOM      8  O   UNL     1      19.462 -23.064   0.345  1.00  0.00    -0.271 OA
ATOM      9  H   UNL     1      16.010 -20.909  -1.447  1.00  0.00    +0.166 HD
ENDROOT
BRANCH   2  10
ATOM     10  C   UNL     1      16.851 -21.658   1.304  1.00  0.00    -0.013 A 
ATOM     11  C   UNL     1      16.701 -20.286   1.587  1.00  0.00    +0.008 A 
ATOM     12  C   UNL     1      16.678 -22.571   2.364  1.00  0.00    +0.008 A 
ATOM     13  C   UNL     1      16.386 -19.845   2.876  1.00  0.00    +0.022 A 
ATOM     14  C   UNL     1      16.364 -22.137   3.654  1.00  0.00    +0.022 A 
ATOM     15  C   UNL     1      16.210 -20.774   3.900  1.00  0.00    +0.082 A 
BRANCH  15  16
ATOM     16  S   UNL     1      15.826 -20.206   5.535  1.00  0.00    +0.238 S 
ATOM     17  O   UNL     1      14.397 -20.296   5.730  1.00  0.00    -0.207 OA
ATOM     18  O   UNL     1      16.776 -20.783   6.455  1.00  0.00    -0.207 OA
BRANCH  16  19
ATOM     19  N   UNL     1      16.162 -18.560   5.405  1.00  0.00    -0.225 NA
ATOM     20  H   UNL     1      17.149 -18.339   5.530  1.00  0.00    +0.137 HD
ATOM     21  H   UNL     1      15.804 -18.222   4.511  1.00  0.00    +0.137 HD
ENDBRANCH  16  19
ENDBRANCH  15  16
ENDBRANCH   2  10
BRANCH   6  22
ATOM     22  C   UNL     1      20.419 -21.588  -1.964  1.00  0.00    +0.211 C 
BRANCH  22  23
ATOM     23  C   UNL     1      20.485 -22.720  -2.986  1.00  0.00    +0.182 C 
ATOM     24  O   UNL     1      20.391 -23.907  -2.672  1.00  0.00    -0.292 OA
BRANCH  23  25
ATOM     25  C   UNL     1      20.687 -22.364  -4.425  1.00  0.00    +0.020 A 
ATOM     26  C   UNL     1      20.117 -23.105  -5.470  1.00  0.00    +0.015 A 
ATOM     27  C   UNL     1      21.475 -21.242  -4.728  1.00  0.00    +0.015 A 
ATOM     28  C   UNL     1      20.339 -22.725  -6.799  1.00  0.00    +0.040 A 
ATOM     29  C   UNL     1      21.695 -20.867  -6.056  1.00  0.00    +0.040 A 
ATOM     30  C   UNL     1      21.124 -21.613  -7.078  1.00  0.00    +0.123 A 
ATOM     31  F   UNL     1      21.332 -21.256  -8.352  1.00  0.00    -0.207 F 
ENDBRANCH  23  25
ENDBRANCH  22  23
ENDBRANCH   6  22
TORSDOF 6
ENDMDL
MODEL 5
REMARK VINA RESULT:    -7.359      4.341      6.919
REMARK INTER + INTRA:         -11.365
REMARK INTER:                 -10.480
REMARK INTRA:                  -0.885
REMARK UNBOUND:                -1.640
REMARK SMILES CC1(c2ccc(S(N)(=O)=O)cc2)NC(=O)N(CC(=O)c2ccc(F)cc2)C1=O
REMARK SMILES IDX 1 1 2 2 13 3 14 4 15 5 16 6 27 7 28 8 3 10 4 11 12 12 5 13
REMARK SMILES IDX 11 14 6 15 7 16 9 17 10 18 8 19 17 22 18 23 19 24 20 25
REMARK SMILES IDX 21 26 26 27 22 28 25 29 23 30 24 31
REMARK H PARENT 13 9 8 20 8 21
ROOT
ATOM      1  C   UNL     1      20.834 -23.355  -0.018  1.00  0.00    +0.051 C 
ATOM      2  C   UNL     1      20.566 -23.424   1.488  1.00  0.00    +0.144 C 
ATOM      3  N   UNL     1      19.978 -24.707   1.817  1.00  0.00    -0.319 N 
ATOM      4  C   UNL     1      18.654 -24.607   2.171  1.00  0.00    +0.325 C 
ATOM      5  O   UNL     1      17.931 -25.566   2.382  1.00  0.00    -0.248 OA
ATOM      6  N   UNL     1      18.318 -23.295   2.233  1.00  0.00    -0.254 N 
ATOM      7  C   UNL     1      19.365 -22.509   1.838  1.00  0.00    +0.261 C 
ATOM      8  O   UNL     1      19.339 -21.287   1.749  1.00  0.00    -0.271 OA
ATOM      9  H   UNL     1      20.378 -25.608   1.596  1.00  0.00    +0.166 HD
ENDROOT
BRANCH   2  10
ATOM     10  C   UNL     1      21.807 -23.104   2.320  1.00  0.00    -0.013 A 
ATOM     11  C   UNL     1      22.791 -22.197   1.882  1.00  0.00    +0.008 A 
ATOM     12  C   UNL     1      21.998 -23.729   3.569  1.00  0.00    +0.008 A 
ATOM     13  C   UNL     1      23.918 -21.921   2.661  1.00  0.00    +0.022 A 
ATOM     14  C   UNL     1      23.122 -23.459   4.354  1.00  0.00    +0.022 A 
ATOM     15  C   UNL     1      24.072 -22.547   3.898  1.00  0.00    +0.082 A 
BRANCH  15  16
ATOM     16  S   UNL     1      25.512 -22.205   4.874  1.00  0.00    +0.238 S 
ATOM     17  O   UNL     1      26.605 -23.012   4.382  1.00  0.00    -0.207 OA
ATOM     18  O   UNL     1      25.617 -20.777   5.051  1.00  0.00    -0.207 OA
BRANCH  16  19
ATOM     19  N   UNL     1      25.082 -22.882   6.355  1.00  0.00    -0.225 NA
ATOM     20  H   UNL     1      24.478 -22.280   6.914  1.00  0.00    +0.137 HD
ATOM     21  H   UNL     1      24.660 -23.797   6.187  1.00  0.00    +0.137 HD
ENDBRANCH  16  19
ENDBRANCH  15  16
ENDBRANCH   2  10
BRANCH   6  22
ATOM     22  C   UNL     1      16.980 -22.810   2.484  1.00  0.00    +0.211 C 
BRANCH  22  23
ATOM     23  C   UNL     1      16.892 -22.315   3.926  1.00  0.00    +0.182 C 
ATOM     24  O   UNL     1      17.594 -22.770   4.830  1.00  0.00    -0.292 OA
BRANCH  23  25
ATOM     25  C   UNL     1      15.899 -21.243   4.248  1.00  0.00    +0.020 A 
ATOM     26  C   UNL     1      15.875 -20.013   3.574  1.00  0.00    +0.015 A 
ATOM     27  C   UNL     1      14.959 -21.491   5.262  1.00  0.00    +0.015 A 
ATOM     28  C   UNL     1      14.923 -19.047   3.917  1.00  0.00    +0.040 A 
ATOM     29  C   UNL     1      14.011 -20.522   5.601  1.00  0.00    +0.040 A 
ATOM     30  C   UNL     1      14.002 -19.309   4.925  1.00  0.00    +0.123 A 
ATOM     31  F   UNL     1      13.095 -18.380   5.248  1.00  0.00    -0.207 F 
ENDBRANCH  23  25
ENDBRANCH  22  23
ENDBRANCH   6  22
TORSDOF 6
ENDMDL
MODEL 6
REMARK VINA RESULT:    -7.328      3.692      7.165
REMARK INTER + INTRA:         -11.324
REMARK INTER:                 -10.462
REMARK INTRA:                  -0.862
REMARK UNBOUND:                -1.640
REMARK SMILES CC1(c2ccc(S(N)(=O)=O)cc2)NC(=O)N(CC(=O)c2ccc(F)cc2)C1=O
REMARK SMILES IDX 1 1 2 2 13 3 14 4 15 5 16 6 27 7 28 8 3 10 4 11 12 12 5 13
REMARK SMILES IDX 11 14 6 15 7 16 9 17 10 18 8 19 17 22 18 23 19 24 20 25
REMARK SMILES IDX 21 26 26 27 22 28 25 29 23 30 24 31
REMARK H PARENT 13 9 8 20 8 21
ROOT
ATOM      1  C   UNL     1      16.117 -23.735   0.754  1.00  0.00    +0.051 C 
ATOM      2  C   UNL     1      17.549 -23.239   0.976  1.00  0.00    +0.144 C 
ATOM      3  N   UNL     1      18.284 -24.218   1.752  1.00  0.00    -0.319 N 
ATOM      4  C   UNL     1      18.552 -23.788   3.028  1.00  0.00    +0.325 C 
ATOM      5  O   UNL     1      19.063 -24.484   3.890  1.00  0.00    -0.248 OA
ATOM      6  N   UNL     1      18.152 -22.497   3.146  1.00  0.00    -0.254 N 
ATOM      7  C   UNL     1      17.536 -22.077   2.000  1.00  0.00    +0.261 C 
ATOM      8  O   UNL     1      17.033 -20.972   1.831  1.00  0.00    -0.271 OA
ATOM      9  H   UNL     1      18.394 -25.193   1.510  1.00  0.00    +0.166 HD
ENDROOT
BRANCH   2  10
ATOM     10  C   UNL     1      18.248 -22.863  -0.329  1.00  0.00    -0.013 A 
ATOM     11  C   UNL     1      17.644 -22.031  -1.292  1.00  0.00    +0.008 A 
ATOM     12  C   UNL     1      19.540 -23.356  -0.603  1.00  0.00    +0.008 A 
ATOM     13  C   UNL     1      18.305 -21.701  -2.479  1.00  0.00    +0.022 A 
ATOM     14  C   UNL     1      20.207 -23.030  -1.787  1.00  0.00    +0.022 A 
ATOM     15  C   UNL     1      19.587 -22.195  -2.715  1.00  0.00    +0.082 A 
BRANCH  15  16
ATOM     16  S   UNL     1      20.413 -21.786  -4.230  1.00  0.00    +0.238 S 
ATOM     17  O   UNL     1      20.943 -22.999  -4.808  1.00  0.00    -0.207 OA
ATOM     18  O   UNL     1      19.583 -20.868  -4.970  1.00  0.00    -0.207 OA
BRANCH  16  19
ATOM     19  N   UNL     1      21.752 -20.934  -3.662  1.00  0.00    -0.225 NA
ATOM     20  H   UNL     1      22.081 -20.221  -4.311  1.00  0.00    +0.137 HD
ATOM     21  H   UNL     1      21.526 -20.542  -2.745  1.00  0.00    +0.137 HD
ENDBRANCH  16  19
ENDBRANCH  15  16
ENDBRANCH   2  10
BRANCH   6  22
ATOM     22  C   UNL     1      18.192 -21.743   4.378  1.00  0.00    +0.211 C 
BRANCH  22  23
ATOM     23  C   UNL     1      16.890 -21.967   5.142  1.00  0.00    +0.182 C 
ATOM     24  O   UNL     1      16.526 -23.080   5.525  1.00  0.00    -0.292 OA
BRANCH  23  25
ATOM     25  C   UNL     1      16.019 -20.784   5.422  1.00  0.00    +0.020 A 
ATOM     26  C   UNL     1      16.455 -19.691   6.186  1.00  0.00    +0.015 A 
ATOM     27  C   UNL     1      14.718 -20.776   4.891  1.00  0.00    +0.015 A 
ATOM     28  C   UNL     1      15.597 -18.610   6.414  1.00  0.00    +0.040 A 
ATOM     29  C   UNL     1      13.865 -19.694   5.123  1.00  0.00    +0.040 A 
ATOM     30  C   UNL     1      14.313 -18.622   5.883  1.00  0.00    +0.123 A 
ATOM     31  F   UNL     1      13.497 -17.584   6.106  1.00  0.00    -0.207 F 
ENDBRANCH  23  25
ENDBRANCH  22  23
ENDBRANCH   6  22
TORSDOF 6
ENDMDL
MODEL 7
REMARK VINA RESULT:    -7.301      2.997      3.882
REMARK INTER + INTRA:         -11.288
REMARK INTER:                 -10.538
REMARK INTRA:                  -0.750
REMARK UNBOUND:                -1.640
REMARK SMILES CC1(c2ccc(S(N)(=O)=O)cc2)NC(=O)N(CC(=O)c2ccc(F)cc2)C1=O
REMARK SMILES IDX 1 1 2 2 13 3 14 4 15 5 16 6 27 7 28 8 3 10 4 11 12 12 5 13
REMARK SMILES IDX 11 14 6 15 7 16 9 17 10 18 8 19 17 22 18 23 19 24 20 25
REMARK SMILES IDX 21 26 26 27 22 28 25 29 23 30 24 31
REMARK H PARENT 13 9 8 20 8 21
ROOT
ATOM      1  C   UNL     1      17.918 -23.397   2.743  1.00  0.00    +0.051 C 
ATOM      2  C   UNL     1      17.360 -22.143   2.064  1.00  0.00    +0.144 C 
ATOM      3  N   UNL     1      16.503 -22.531   0.962  1.00  0.00    -0.319 N 
ATOM      4  C   UNL     1      17.055 -22.247  -0.264  1.00  0.00    +0.325 C 
ATOM      5  O   UNL     1      16.563 -22.582  -1.328  1.00  0.00    -0.248 OA
ATOM      6  N   UNL     1      18.207 -21.556  -0.072  1.00  0.00    -0.254 N 
ATOM      7  C   UNL     1      18.489 -21.449   1.261  1.00  0.00    +0.261 C 
ATOM      8  O   UNL     1      19.487 -20.917   1.733  1.00  0.00    -0.271 OA
ATOM      9  H   UNL     1      15.708 -23.151   1.029  1.00  0.00    +0.166 HD
ENDROOT
BRANCH   2  10
ATOM     10  C   UNL     1      16.676 -21.197   3.049  1.00  0.00    -0.013 A 
ATOM     11  C   UNL     1      16.521 -21.516   4.412  1.00  0.00    +0.008 A 
ATOM     12  C   UNL     1      16.170 -19.959   2.602  1.00  0.00    +0.008 A 
ATOM     13  C   UNL     1      15.890 -20.634   5.294  1.00  0.00    +0.022 A 
ATOM     14  C   UNL     1      15.538 -19.072   3.478  1.00  0.00    +0.022 A 
ATOM     15  C   UNL     1      15.411 -19.412   4.823  1.00  0.00    +0.082 A 
BRANCH  15  16
ATOM     16  S   UNL     1      14.599 -18.304   5.944  1.00  0.00    +0.238 S 
ATOM     17  O   UNL     1      13.277 -18.817   6.221  1.00  0.00    -0.207 OA
ATOM     18  O   UNL     1      15.529 -17.944   6.987  1.00  0.00    -0.207 OA
BRANCH  16  19
ATOM     19  N   UNL     1      14.363 -16.952   4.967  1.00  0.00    -0.225 NA
ATOM     20  H   UNL     1      14.059 -16.128   5.485  1.00  0.00    +0.137 HD
ATOM     21  H   UNL     1      15.219 -16.776   4.438  1.00  0.00    +0.137 HD
ENDBRANCH  16  19
ENDBRANCH  15  16
ENDBRANCH   2  10
BRANCH   6  22
ATOM     22  C   UNL     1      19.107 -21.169  -1.133  1.00  0.00    +0.211 C 
BRANCH  22  23
ATOM     23  C   UNL     1      19.976 -22.365  -1.512  1.00  0.00    +0.182 C 
ATOM     24  O   UNL     1      20.248 -23.267  -0.718  1.00  0.00    -0.292 OA
BRANCH  23  25
ATOM     25  C   UNL     1      20.528 -22.430  -2.900  1.00  0.00    +0.020 A 
ATOM     26  C   UNL     1      19.790 -22.936  -3.981  1.00  0.00    +0.015 A 
ATOM     27  C   UNL     1      21.833 -21.960  -3.120  1.00  0.00    +0.015 A 
ATOM     28  C   UNL     1      20.357 -22.972  -5.259  1.00  0.00    +0.040 A 
ATOM     29  C   UNL     1      22.395 -21.999  -4.398  1.00  0.00    +0.040 A 
ATOM     30  C   UNL     1      21.651 -22.505  -5.456  1.00  0.00    +0.123 A 
ATOM     31  F   UNL     1      22.187 -22.542  -6.682  1.00  0.00    -0.207 F 
ENDBRANCH  23  25
ENDBRANCH  22  23
ENDBRANCH   6  22
TORSDOF 6
ENDMDL
MODEL 8
REMARK VINA RESULT:    -7.271      3.960      7.319
REMARK INTER + INTRA:         -11.248
REMARK INTER:                 -10.623
REMARK INTRA:                  -0.625
REMARK UNBOUND:                -1.640
REMARK SMILES CC1(c2ccc(S(N)(=O)=O)cc2)NC(=O)N(CC(=O)c2ccc(F)cc2)C1=O
REMARK SMILES IDX 1 1 2 2 13 3 14 4 15 5 16 6 27 7 28 8 3 10 4 11 12 12 5 13
REMARK SMILES IDX 11 14 6 15 7 16 9 17 10 18 8 19 17 22 18 23 19 24 20 25
REMARK SMILES IDX 21 26 26 27 22 28 25 29 23 30 24 31
REMARK H PARENT 13 9 8 20 8 21
ROOT
ATOM      1  C   UNL     1      19.438 -25.914   0.224  1.00  0.00    +0.051 C 
ATOM      2  C   UNL     1      19.402 -24.387   0.327  1.00  0.00    +0.144 C 
ATOM      3  N   UNL     1      20.271 -23.954   1.404  1.00  0.00    -0.319 N 
ATOM      4  C   UNL     1      19.573 -23.467   2.482  1.00  0.00    +0.325 C 
ATOM      5  O   UNL     1      20.089 -23.148   3.540  1.00  0.00    -0.248 OA
ATOM      6  N   UNL     1      18.256 -23.415   2.162  1.00  0.00    -0.254 N 
ATOM      7  C   UNL     1      18.041 -23.945   0.920  1.00  0.00    +0.261 C 
ATOM      8  O   UNL     1      16.945 -24.072   0.385  1.00  0.00    -0.271 OA
ATOM      9  H   UNL     1      21.250 -24.185   1.494  1.00  0.00    +0.166 HD
ENDROOT
BRANCH   2  10
ATOM     10  C   UNL     1      19.711 -23.702  -1.003  1.00  0.00    -0.013 A 
ATOM     11  C   UNL     1      19.002 -22.570  -1.448  1.00  0.00    +0.008 A 
ATOM     12  C   UNL     1      20.735 -24.205  -1.833  1.00  0.00    +0.008 A 
ATOM     13  C   UNL     1      19.304 -21.961  -2.670  1.00  0.00    +0.022 A 
ATOM     14  C   UNL     1      21.043 -23.602  -3.055  1.00  0.00    +0.022 A 
ATOM     15  C   UNL     1      20.330 -22.475  -3.462  1.00  0.00    +0.082 A 
BRANCH  15  16
ATOM     16  S   UNL     1      20.698 -21.708  -5.017  1.00  0.00    +0.238 S 
ATOM     17  O   UNL     1      21.759 -20.748  -4.818  1.00  0.00    -0.207 OA
ATOM     18  O   UNL     1      20.754 -22.732  -6.032  1.00  0.00    -0.207 OA
BRANCH  16  19
ATOM     19  N   UNL     1      19.306 -20.794  -5.277  1.00  0.00    -0.225 NA
ATOM     20  H   UNL     1      18.450 -21.345  -5.243  1.00  0.00    +0.137 HD
ATOM     21  H   UNL     1      19.291 -20.022  -4.609  1.00  0.00    +0.137 HD
ENDBRANCH  16  19
ENDBRANCH  15  16
ENDBRANCH   2  10
BRANCH   6  22
ATOM     22  C   UNL     1      17.210 -23.042   3.085  1.00  0.00    +0.211 C 
BRANCH  22  23
ATOM     23  C   UNL     1      16.993 -21.532   3.010  1.00  0.00    +0.182 C 
ATOM     24  O   UNL     1      17.666 -20.799   2.285  1.00  0.00    -0.292 OA
BRANCH  23  25
ATOM     25  C   UNL     1      15.926 -20.926   3.865  1.00  0.00    +0.020 A 
ATOM     26  C   UNL     1      15.279 -21.642   4.883  1.00  0.00    +0.015 A 
ATOM     27  C   UNL     1      15.570 -19.587   3.633  1.00  0.00    +0.015 A 
ATOM     28  C   UNL     1      14.288 -21.022   5.652  1.00  0.00    +0.040 A 
ATOM     29  C   UNL     1      14.580 -18.973   4.404  1.00  0.00    +0.040 A 
ATOM     30  C   UNL     1      13.948 -19.697   5.406  1.00  0.00    +0.123 A 
ATOM     31  F   UNL     1      12.999 -19.111   6.146  1.00  0.00    -0.207 F 
ENDBRANCH  23  25
ENDBRANCH  22  23
ENDBRANCH   6  22
TORSDOF 6
ENDMDL
MODEL 9
REMARK VINA RESULT:    -7.152      3.653      6.940
REMARK INTER + INTRA:         -11.091
REMARK INTER:                 -10.290
REMARK INTRA:                  -0.801
REMARK UNBOUND:                -1.640
REMARK SMILES CC1(c2ccc(S(N)(=O)=O)cc2)NC(=O)N(CC(=O)c2ccc(F)cc2)C1=O
REMARK SMILES IDX 1 1 2 2 13 3 14 4 15 5 16 6 27 7 28 8 3 10 4 11 12 12 5 13
REMARK SMILES IDX 11 14 6 15 7 16 9 17 10 18 8 19 17 22 18 23 19 24 20 25
REMARK SMILES IDX 21 26 26 27 22 28 25 29 23 30 24 31
REMARK H PARENT 13 9 8 20 8 21
ROOT
ATOM      1  C   UNL     1      17.971 -25.325   2.500  1.00  0.00    +0.051 C 
ATOM      2  C   UNL     1      18.208 -23.829   2.270  1.00  0.00    +0.144 C 
ATOM      3  N   UNL     1      18.888 -23.265   3.418  1.00  0.00    -0.319 N 
ATOM      4  C   UNL     1      18.080 -22.434   4.156  1.00  0.00    +0.325 C 
ATOM      5  O   UNL     1      18.405 -21.935   5.220  1.00  0.00    -0.248 OA
ATOM      6  N   UNL     1      16.899 -22.285   3.505  1.00  0.00    -0.254 N 
ATOM      7  C   UNL     1      16.861 -23.072   2.388  1.00  0.00    +0.261 C 
ATOM      8  O   UNL     1      15.905 -23.179   1.628  1.00  0.00    -0.271 OA
ATOM      9  H   UNL     1      19.761 -23.597   3.803  1.00  0.00    +0.166 HD
ENDROOT
BRANCH   2  10
ATOM     10  C   UNL     1      18.925 -23.546   0.951  1.00  0.00    -0.013 A 
ATOM     11  C   UNL     1      19.630 -24.543   0.250  1.00  0.00    +0.008 A 
ATOM     12  C   UNL     1      18.899 -22.248   0.400  1.00  0.00    +0.008 A 
ATOM     13  C   UNL     1      20.279 -24.258  -0.956  1.00  0.00    +0.022 A 
ATOM     14  C   UNL     1      19.545 -21.956  -0.804  1.00  0.00    +0.022 A 
ATOM     15  C   UNL     1      20.224 -22.967  -1.480  1.00  0.00    +0.082 A 
BRANCH  15  16
ATOM     16  S   UNL     1      21.062 -22.609  -3.001  1.00  0.00    +0.238 S 
ATOM     17  O   UNL     1      20.740 -23.643  -3.959  1.00  0.00    -0.207 OA
ATOM     18  O   UNL     1      20.908 -21.205  -3.290  1.00  0.00    -0.207 OA
BRANCH  16  19
ATOM     19  N   UNL     1      22.669 -22.878  -2.570  1.00  0.00    -0.225 NA
ATOM     20  H   UNL     1      23.336 -22.483  -3.232  1.00  0.00    +0.137 HD
ATOM     21  H   UNL     1      22.817 -22.528  -1.622  1.00  0.00    +0.137 HD
ENDBRANCH  16  19
ENDBRANCH  15  16
ENDBRANCH   2  10
BRANCH   6  22
ATOM     22  C   UNL     1      15.769 -21.554   4.030  1.00  0.00    +0.211 C 
BRANCH  22  23
ATOM     23  C   UNL     1      15.823 -20.117   3.518  1.00  0.00    +0.182 C 
ATOM     24  O   UNL     1      16.657 -19.734   2.697  1.00  0.00    -0.292 OA
BRANCH  23  25
ATOM     25  C   UNL     1      14.826 -19.137   4.051  1.00  0.00    +0.020 A 
ATOM     26  C   UNL     1      14.274 -19.248   5.335  1.00  0.00    +0.015 A 
ATOM     27  C   UNL     1      14.440 -18.067   3.226  1.00  0.00    +0.015 A 
ATOM     28  C   UNL     1      13.346 -18.301   5.782  1.00  0.00    +0.040 A 
ATOM     29  C   UNL     1      13.512 -17.124   3.677  1.00  0.00    +0.040 A 
ATOM     30  C   UNL     1      12.974 -17.251   4.950  1.00  0.00    +0.123 A 
ATOM     31  F   UNL     1      12.085 -16.348   5.385  1.00  0.00    -0.207 F 
ENDBRANCH  23  25
ENDBRANCH  22  23
ENDBRANCH   6  22
TORSDOF 6
ENDMDL
