MODEL 1
REMARK VINA RESULT:    -9.018      0.000      0.000
REMARK INTER + INTRA:         -12.315
REMARK INTER:                 -11.654
REMARK INTRA:                  -0.661
REMARK UNBOUND:                -0.661
REMARK SMILES COC(=O)NC(=O)c1ccsc1NC(=O)c1ccc(C(=O)N2CCCCC2)c(F)c1
REMARK SMILES IDX 8 1 9 2 10 3 11 4 12 5 6 6 3 7 4 8 5 9 7 10 2 12 1 13 13 14
REMARK SMILES IDX 14 15 15 16 16 18 17 19 30 20 18 21 28 22 19 23 29 24 20 25
REMARK SMILES IDX 21 26 22 27 23 28 27 29 24 30 26 31 25 32
REMARK H PARENT 5 11 13 17
ROOT
ATOM      1  C   UNL     1      15.486 -20.176   4.576  1.00  0.00    +0.075 A 
ATOM      2  C   UNL     1      15.168 -20.425   5.960  1.00  0.00    +0.028 A 
ATOM      3  C   UNL     1      15.799 -21.544   6.458  1.00  0.00    +0.068 A 
ATOM      4  S   UNL     1      16.764 -22.303   5.280  1.00  0.00    -0.126 S 
ATOM      5  C   UNL     1      16.360 -21.151   4.101  1.00  0.00    +0.108 A 
ENDROOT
BRANCH   1   6
ATOM      6  C   UNL     1      15.000 -19.085   3.709  1.00  0.00    +0.263 C 
ATOM      7  C   UNL     1      13.516 -17.159   3.692  1.00  0.00    +0.413 C 
ATOM      8  O   UNL     1      13.665 -16.779   2.543  1.00  0.00    -0.224 OA
ATOM      9  N   UNL     1      14.091 -18.238   4.297  1.00  0.00    -0.257 N 
ATOM     10  O   UNL     1      15.411 -18.978   2.557  1.00  0.00    -0.269 OA
ATOM     11  H   UNL     1      13.821 -18.356   5.256  1.00  0.00    +0.176 HD
BRANCH   7  12
ATOM     12  O   UNL     1      12.710 -16.550   4.602  1.00  0.00    -0.453 OA
ATOM     13  C   UNL     1      12.616 -17.241   5.851  1.00  0.00    +0.284 C 
ENDBRANCH   7  12
ENDBRANCH   1   6
BRANCH   5  14
ATOM     14  N   UNL     1      16.861 -21.225   2.809  1.00  0.00    -0.313 N 
ATOM     15  C   UNL     1      16.835 -22.310   1.954  1.00  0.00    +0.256 C 
ATOM     16  O   UNL     1      16.428 -23.440   2.194  1.00  0.00    -0.269 OA
ATOM     17  H   UNL     1      17.342 -20.379   2.507  1.00  0.00    +0.171 HD
BRANCH  15  18
ATOM     18  C   UNL     1      17.414 -22.056   0.600  1.00  0.00    +0.043 A 
ATOM     19  C   UNL     1      18.602 -21.330   0.416  1.00  0.00    +0.015 A 
ATOM     20  C   UNL     1      16.716 -22.535  -0.517  1.00  0.00    +0.054 A 
ATOM     21  C   UNL     1      19.099 -21.116  -0.875  1.00  0.00    +0.018 A 
ATOM     22  C   UNL     1      17.217 -22.317  -1.798  1.00  0.00    +0.136 A 
ATOM     23  C   UNL     1      18.417 -21.632  -1.982  1.00  0.00    +0.075 A 
ATOM     24  F   UNL     1      16.523 -22.784  -2.845  1.00  0.00    -0.206 F 
BRANCH  23  25
ATOM     25  C   UNL     1      18.940 -21.355  -3.334  1.00  0.00    +0.256 C 
ATOM     26  O   UNL     1      18.445 -20.401  -3.933  1.00  0.00    -0.269 OA
ATOM     27  N   UNL     1      19.953 -22.159  -3.862  1.00  0.00    -0.339 N 
ATOM     28  C   UNL     1      20.405 -21.843  -5.216  1.00  0.00    +0.120 C 
ATOM     29  C   UNL     1      20.927 -22.863  -3.025  1.00  0.00    +0.120 C 
ATOM     30  C   UNL     1      20.948 -23.074  -5.935  1.00  0.00    +0.022 C 
ATOM     31  C   UNL     1      21.466 -24.111  -3.714  1.00  0.00    +0.022 C 
ATOM     32  C   UNL     1      22.009 -23.785  -5.101  1.00  0.00    +0.004 C 
ENDBRANCH  23  25
ENDBRANCH  15  18
ENDBRANCH   5  14
TORSDOF 5
ENDMDL
MODEL 2
REMARK VINA RESULT:    -8.709      3.674      5.534
REMARK INTER + INTRA:         -11.916
REMARK INTER:                 -11.389
REMARK INTRA:                  -0.526
REMARK UNBOUND:                -0.661
REMARK SMILES COC(=O)NC(=O)c1ccsc1NC(=O)c1ccc(C(=O)N2CCCCC2)c(F)c1
REMARK SMILES IDX 8 1 9 2 10 3 11 4 12 5 6 6 3 7 4 8 5 9 7 10 2 12 1 13 13 14
REMARK SMILES IDX 14 15 15 16 16 18 17 19 30 20 18 21 28 22 19 23 29 24 20 25
REMARK SMILES IDX 21 26 22 27 23 28 27 29 24 30 26 31 25 32
REMARK H PARENT 5 11 13 17
ROOT
ATOM      1  C   UNL     1      14.338 -17.697   2.780  1.00  0.00    +0.075 A 
ATOM      2  C   UNL     1      13.232 -16.841   3.132  1.00  0.00    +0.028 A 
ATOM      3  C   UNL     1      12.750 -17.087   4.398  1.00  0.00    +0.068 A 
ATOM      4  S   UNL     1      13.605 -18.341   5.168  1.00  0.00    -0.126 S 
ATOM      5  C   UNL     1      14.628 -18.563   3.832  1.00  0.00    +0.108 A 
ENDROOT
BRANCH   1   6
ATOM      6  C   UNL     1      15.102 -17.731   1.518  1.00  0.00    +0.263 C 
ATOM      7  C   UNL     1      16.113 -19.262  -0.077  1.00  0.00    +0.413 C 
ATOM      8  O   UNL     1      16.595 -18.468  -0.867  1.00  0.00    -0.224 OA
ATOM      9  N   UNL     1      15.422 -18.989   1.067  1.00  0.00    -0.257 N 
ATOM     10  O   UNL     1      15.401 -16.686   0.946  1.00  0.00    -0.269 OA
ATOM     11  H   UNL     1      15.117 -19.808   1.561  1.00  0.00    +0.176 HD
BRANCH   7  12
ATOM     12  O   UNL     1      16.195 -20.614  -0.204  1.00  0.00    -0.453 OA
ATOM     13  C   UNL     1      15.772 -21.105  -1.479  1.00  0.00    +0.284 C 
ENDBRANCH   7  12
ENDBRANCH   1   6
BRANCH   5  14
ATOM     14  N   UNL     1      15.622 -19.531   3.830  1.00  0.00    -0.313 N 
ATOM     15  C   UNL     1      15.519 -20.849   4.230  1.00  0.00    +0.256 C 
ATOM     16  O   UNL     1      14.550 -21.403   4.733  1.00  0.00    -0.269 OA
ATOM     17  H   UNL     1      16.534 -19.180   3.540  1.00  0.00    +0.171 HD
BRANCH  15  18
ATOM     18  C   UNL     1      16.764 -21.657   4.056  1.00  0.00    +0.043 A 
ATOM     19  C   UNL     1      17.104 -22.708   4.924  1.00  0.00    +0.015 A 
ATOM     20  C   UNL     1      17.630 -21.319   3.008  1.00  0.00    +0.054 A 
ATOM     21  C   UNL     1      18.285 -23.431   4.719  1.00  0.00    +0.018 A 
ATOM     22  C   UNL     1      18.804 -22.042   2.812  1.00  0.00    +0.136 A 
ATOM     23  C   UNL     1      19.123 -23.112   3.645  1.00  0.00    +0.075 A 
ATOM     24  F   UNL     1      19.612 -21.689   1.803  1.00  0.00    -0.206 F 
BRANCH  23  25
ATOM     25  C   UNL     1      20.384 -23.862   3.479  1.00  0.00    +0.256 C 
ATOM     26  O   UNL     1      21.246 -23.695   4.341  1.00  0.00    -0.269 OA
ATOM     27  N   UNL     1      20.542 -24.713   2.382  1.00  0.00    -0.339 N 
ATOM     28  C   UNL     1      21.825 -25.404   2.265  1.00  0.00    +0.120 C 
ATOM     29  C   UNL     1      19.414 -25.370   1.716  1.00  0.00    +0.120 C 
ATOM     30  C   UNL     1      22.167 -25.727   0.814  1.00  0.00    +0.022 C 
ATOM     31  C   UNL     1      19.724 -25.681   0.256  1.00  0.00    +0.022 C 
ATOM     32  C   UNL     1      21.025 -26.466   0.123  1.00  0.00    +0.004 C 
ENDBRANCH  23  25
ENDBRANCH  15  18
ENDBRANCH   5  14
TORSDOF 5
ENDMDL
MODEL 3
REMARK VINA RESULT:    -8.523      5.226      6.766
REMARK INTER + INTRA:         -11.675
REMARK INTER:                 -10.703
REMARK INTRA:                  -0.972
REMARK UNBOUND:                -0.661
REMARK SMILES COC(=O)NC(=O)c1ccsc1NC(=O)c1ccc(C(=O)N2CCCCC2)c(F)c1
REMARK SMILES IDX 8 1 9 2 10 3 11 4 12 5 6 6 3 7 4 8 5 9 7 10 2 12 1 13 13 14
REMARK SMILES IDX 14 15 15 16 16 18 17 19 30 20 18 21 28 22 19 23 29 24 20 25
REMARK SMILES IDX 21 26 22 27 23 28 27 29 24 30 26 31 25 32
REMARK H PARENT 5 11 13 17
ROOT
ATOM      1  C   UNL     1      16.267 -19.507   2.330  1.00  0.00    +0.075 A 
ATOM      2  C   UNL     1      15.471 -18.647   1.490  1.00  0.00    +0.028 A 
ATOM      3  C   UNL     1      15.940 -18.583   0.197  1.00  0.00    +0.068 A 
ATOM      4  S   UNL     1      17.331 -19.538  -0.020  1.00  0.00    -0.126 S 
ATOM      5  C   UNL     1      17.320 -20.052   1.597  1.00  0.00    +0.108 A 
ENDROOT
BRANCH   1   6
ATOM      6  C   UNL     1      16.079 -19.816   3.760  1.00  0.00    +0.263 C 
ATOM      7  C   UNL     1      15.163 -18.906   5.819  1.00  0.00    +0.413 C 
ATOM      8  O   UNL     1      15.437 -19.805   6.597  1.00  0.00    -0.224 OA
ATOM      9  N   UNL     1      15.450 -18.836   4.488  1.00  0.00    -0.257 N 
ATOM     10  O   UNL     1      16.468 -20.887   4.220  1.00  0.00    -0.269 OA
ATOM     11  H   UNL     1      15.122 -17.996   4.047  1.00  0.00    +0.176 HD
BRANCH   7  12
ATOM     12  O   UNL     1      14.503 -17.769   6.166  1.00  0.00    -0.453 OA
ATOM     13  C   UNL     1      13.122 -17.760   5.792  1.00  0.00    +0.284 C 
ENDBRANCH   7  12
ENDBRANCH   1   6
BRANCH   5  14
ATOM     14  N   UNL     1      18.289 -20.913   2.094  1.00  0.00    -0.313 N 
ATOM     15  C   UNL     1      18.543 -22.213   1.705  1.00  0.00    +0.256 C 
ATOM     16  O   UNL     1      17.917 -22.887   0.896  1.00  0.00    -0.269 OA
ATOM     17  H   UNL     1      18.824 -20.522   2.869  1.00  0.00    +0.171 HD
BRANCH  15  18
ATOM     18  C   UNL     1      19.696 -22.862   2.400  1.00  0.00    +0.043 A 
ATOM     19  C   UNL     1      19.646 -23.232   3.754  1.00  0.00    +0.015 A 
ATOM     20  C   UNL     1      20.875 -23.069   1.671  1.00  0.00    +0.054 A 
ATOM     21  C   UNL     1      20.756 -23.832   4.358  1.00  0.00    +0.018 A 
ATOM     22  C   UNL     1      21.976 -23.665   2.280  1.00  0.00    +0.136 A 
ATOM     23  C   UNL     1      21.915 -24.071   3.611  1.00  0.00    +0.075 A 
ATOM     24  F   UNL     1      23.089 -23.844   1.555  1.00  0.00    -0.206 F 
BRANCH  23  25
ATOM     25  C   UNL     1      23.086 -24.665   4.285  1.00  0.00    +0.256 C 
ATOM     26  O   UNL     1      23.158 -25.894   4.290  1.00  0.00    -0.269 OA
ATOM     27  N   UNL     1      24.045 -23.833   4.868  1.00  0.00    -0.339 N 
ATOM     28  C   UNL     1      25.165 -24.488   5.540  1.00  0.00    +0.120 C 
ATOM     29  C   UNL     1      24.307 -22.471   4.395  1.00  0.00    +0.120 C 
ATOM     30  C   UNL     1      25.738 -23.626   6.661  1.00  0.00    +0.022 C 
ATOM     31  C   UNL     1      24.859 -21.584   5.506  1.00  0.00    +0.022 C 
ATOM     32  C   UNL     1      26.075 -22.222   6.170  1.00  0.00    +0.004 C 
ENDBRANCH  23  25
ENDBRANCH  15  18
ENDBRANCH   5  14
TORSDOF 5
ENDMDL
MODEL 4
REMARK VINA RESULT:    -8.496      4.989      6.012
REMARK INTER + INTRA:         -11.641
REMARK INTER:                 -10.707
REMARK INTRA:                  -0.934
REMARK UNBOUND:                -0.661
REMARK SMILES COC(=O)NC(=O)c1ccsc1NC(=O)c1ccc(C(=O)N2CCCCC2)c(F)c1
REMARK SMILES IDX 8 1 9 2 10 3 11 4 12 5 6 6 3 7 4 8 5 9 7 10 2 12 1 13 13 14
REMARK SMILES IDX 14 15 15 16 16 18 17 19 30 20 18 21 28 22 19 23 29 24 20 25
REMARK SMILES IDX 21 26 22 27 23 28 27 29 24 30 26 31 25 32
REMARK H PARENT 5 11 13 17
ROOT
ATOM      1  C   UNL     1      15.670 -20.315   3.980  1.00  0.00    +0.075 A 
ATOM      2  C   UNL     1      14.432 -20.087   4.684  1.00  0.00    +0.028 A 
ATOM      3  C   UNL     1      14.351 -20.796   5.861  1.00  0.00    +0.068 A 
ATOM      4  S   UNL     1      15.741 -21.739   6.129  1.00  0.00    -0.126 S 
ATOM      5  C   UNL     1      16.468 -21.210   4.689  1.00  0.00    +0.108 A 
ENDROOT
BRANCH   1   6
ATOM      6  C   UNL     1      16.109 -19.740   2.694  1.00  0.00    +0.263 C 
ATOM      7  C   UNL     1      15.756 -17.842   1.216  1.00  0.00    +0.413 C 
ATOM      8  O   UNL     1      16.514 -18.130   0.305  1.00  0.00    -0.224 OA
ATOM      9  N   UNL     1      15.502 -18.556   2.350  1.00  0.00    -0.257 N 
ATOM     10  O   UNL     1      16.960 -20.311   2.017  1.00  0.00    -0.269 OA
ATOM     11  H   UNL     1      14.838 -18.119   2.964  1.00  0.00    +0.176 HD
BRANCH   7  12
ATOM     12  O   UNL     1      14.997 -16.714   1.253  1.00  0.00    -0.453 OA
ATOM     13  C   UNL     1      14.020 -16.704   2.299  1.00  0.00    +0.284 C 
ENDBRANCH   7  12
ENDBRANCH   1   6
BRANCH   5  14
ATOM     14  N   UNL     1      17.719 -21.663   4.296  1.00  0.00    -0.313 N 
ATOM     15  C   UNL     1      18.013 -22.780   3.539  1.00  0.00    +0.256 C 
ATOM     16  O   UNL     1      17.233 -23.630   3.128  1.00  0.00    -0.269 OA
ATOM     17  H   UNL     1      18.490 -21.110   4.669  1.00  0.00    +0.171 HD
BRANCH  15  18
ATOM     18  C   UNL     1      19.465 -22.970   3.239  1.00  0.00    +0.043 A 
ATOM     19  C   UNL     1      20.079 -22.397   2.112  1.00  0.00    +0.015 A 
ATOM     20  C   UNL     1      20.217 -23.779   4.100  1.00  0.00    +0.054 A 
ATOM     21  C   UNL     1      21.442 -22.610   1.874  1.00  0.00    +0.018 A 
ATOM     22  C   UNL     1      21.572 -23.987   3.855  1.00  0.00    +0.136 A 
ATOM     23  C   UNL     1      22.194 -23.387   2.762  1.00  0.00    +0.075 A 
ATOM     24  F   UNL     1      22.262 -24.770   4.696  1.00  0.00    -0.206 F 
BRANCH  23  25
ATOM     25  C   UNL     1      23.618 -23.632   2.463  1.00  0.00    +0.256 C 
ATOM     26  O   UNL     1      23.867 -24.287   1.452  1.00  0.00    -0.269 OA
ATOM     27  N   UNL     1      24.602 -23.117   3.312  1.00  0.00    -0.339 N 
ATOM     28  C   UNL     1      25.990 -23.420   2.971  1.00  0.00    +0.120 C 
ATOM     29  C   UNL     1      24.403 -21.910   4.118  1.00  0.00    +0.120 C 
ATOM     30  C   UNL     1      26.888 -23.438   4.204  1.00  0.00    +0.022 C 
ATOM     31  C   UNL     1      25.273 -21.918   5.370  1.00  0.00    +0.022 C 
ATOM     32  C   UNL     1      26.739 -22.160   5.023  1.00  0.00    +0.004 C 
ENDBRANCH  23  25
ENDBRANCH  15  18
ENDBRANCH   5  14
TORSDOF 5
ENDMDL
MODEL 5
REMARK VINA RESULT:    -8.477      3.485      8.708
REMARK INTER + INTRA:         -11.616
REMARK INTER:                 -10.633
REMARK INTRA:                  -0.984
REMARK UNBOUND:                -0.661
REMARK SMILES COC(=O)NC(=O)c1ccsc1NC(=O)c1ccc(C(=O)N2CCCCC2)c(F)c1
REMARK SMILES IDX 8 1 9 2 10 3 11 4 12 5 6 6 3 7 4 8 5 9 7 10 2 12 1 13 13 14
REMARK SMILES IDX 14 15 15 16 16 18 17 19 30 20 18 21 28 22 19 23 29 24 20 25
REMARK SMILES IDX 21 26 22 27 23 28 27 29 24 30 26 31 25 32
REMARK H PARENT 5 11 13 17
ROOT
ATOM      1  C   UNL     1      20.624 -22.645  -0.953  1.00  0.00    +0.075 A 
ATOM      2  C   UNL     1      21.914 -22.956  -1.516  1.00  0.00    +0.028 A 
ATOM      3  C   UNL     1      22.846 -23.290  -0.559  1.00  0.00    +0.068 A 
ATOM      4  S   UNL     1      22.192 -23.229   1.010  1.00  0.00    -0.126 S 
ATOM      5  C   UNL     1      20.664 -22.765   0.434  1.00  0.00    +0.108 A 
ENDROOT
BRANCH   1   6
ATOM      6  C   UNL     1      19.392 -22.242  -1.659  1.00  0.00    +0.263 C 
ATOM      7  C   UNL     1      17.970 -20.320  -2.099  1.00  0.00    +0.413 C 
ATOM      8  O   UNL     1      17.100 -20.841  -2.775  1.00  0.00    -0.224 OA
ATOM      9  N   UNL     1      19.057 -20.916  -1.529  1.00  0.00    -0.257 N 
ATOM     10  O   UNL     1      18.751 -23.065  -2.307  1.00  0.00    -0.269 OA
ATOM     11  H   UNL     1      19.642 -20.283  -1.015  1.00  0.00    +0.176 HD
BRANCH   7  12
ATOM     12  O   UNL     1      18.001 -18.999  -1.778  1.00  0.00    -0.453 OA
ATOM     13  C   UNL     1      17.239 -18.664  -0.614  1.00  0.00    +0.284 C 
ENDBRANCH   7  12
ENDBRANCH   1   6
BRANCH   5  14
ATOM     14  N   UNL     1      19.602 -22.527   1.296  1.00  0.00    -0.313 N 
ATOM     15  C   UNL     1      18.876 -23.454   2.018  1.00  0.00    +0.256 C 
ATOM     16  O   UNL     1      18.978 -24.674   1.984  1.00  0.00    -0.269 OA
ATOM     17  H   UNL     1      19.322 -21.548   1.339  1.00  0.00    +0.171 HD
BRANCH  15  18
ATOM     18  C   UNL     1      17.821 -22.873   2.903  1.00  0.00    +0.043 A 
ATOM     19  C   UNL     1      16.460 -22.881   2.555  1.00  0.00    +0.015 A 
ATOM     20  C   UNL     1      18.224 -22.272   4.103  1.00  0.00    +0.054 A 
ATOM     21  C   UNL     1      15.513 -22.319   3.418  1.00  0.00    +0.018 A 
ATOM     22  C   UNL     1      17.276 -21.714   4.956  1.00  0.00    +0.136 A 
ATOM     23  C   UNL     1      15.920 -21.757   4.632  1.00  0.00    +0.075 A 
ATOM     24  F   UNL     1      17.695 -21.142   6.093  1.00  0.00    -0.206 F 
BRANCH  23  25
ATOM     25  C   UNL     1      14.906 -21.132   5.504  1.00  0.00    +0.256 C 
ATOM     26  O   UNL     1      14.579 -21.758   6.511  1.00  0.00    -0.269 OA
ATOM     27  N   UNL     1      14.376 -19.884   5.164  1.00  0.00    -0.339 N 
ATOM     28  C   UNL     1      13.357 -19.336   6.057  1.00  0.00    +0.120 C 
ATOM     29  C   UNL     1      15.115 -18.895   4.375  1.00  0.00    +0.120 C 
ATOM     30  C   UNL     1      12.399 -18.404   5.322  1.00  0.00    +0.022 C 
ATOM     31  C   UNL     1      14.177 -17.967   3.612  1.00  0.00    +0.022 C 
ATOM     32  C   UNL     1      13.152 -17.329   4.544  1.00  0.00    +0.004 C 
ENDBRANCH  23  25
ENDBRANCH  15  18
ENDBRANCH   5  14
TORSDOF 5
ENDMDL
MODEL 6
REMARK VINA RESULT:    -8.353      3.952      5.570
REMARK INTER + INTRA:         -11.455
REMARK INTER:                 -11.228
REMARK INTRA:                  -0.226
REMARK UNBOUND:                -0.661
REMARK SMILES COC(=O)NC(=O)c1ccsc1NC(=O)c1ccc(C(=O)N2CCCCC2)c(F)c1
REMARK SMILES IDX 8 1 9 2 10 3 11 4 12 5 6 6 3 7 4 8 5 9 7 10 2 12 1 13 13 14
REMARK SMILES IDX 14 15 15 16 16 18 17 19 30 20 18 21 28 22 19 23 29 24 20 25
REMARK SMILES IDX 21 26 22 27 23 28 27 29 24 30 26 31 25 32
REMARK H PARENT 5 11 13 17
ROOT
ATOM      1  C   UNL     1      13.699 -17.550   3.897  1.00  0.00    +0.075 A 
ATOM      2  C   UNL     1      12.745 -16.697   4.562  1.00  0.00    +0.028 A 
ATOM      3  C   UNL     1      12.333 -17.204   5.774  1.00  0.00    +0.068 A 
ATOM      4  S   UNL     1      13.073 -18.696   6.121  1.00  0.00    -0.126 S 
ATOM      5  C   UNL     1      13.953 -18.680   4.670  1.00  0.00    +0.108 A 
ENDROOT
BRANCH   1   6
ATOM      6  C   UNL     1      14.353 -17.343   2.591  1.00  0.00    +0.263 C 
ATOM      7  C   UNL     1      15.957 -18.347   1.064  1.00  0.00    +0.413 C 
ATOM      8  O   UNL     1      15.967 -17.511   0.176  1.00  0.00    -0.224 OA
ATOM      9  N   UNL     1      15.245 -18.324   2.227  1.00  0.00    -0.257 N 
ATOM     10  O   UNL     1      14.085 -16.356   1.911  1.00  0.00    -0.269 OA
ATOM     11  H   UNL     1      15.395 -19.127   2.810  1.00  0.00    +0.176 HD
BRANCH   7  12
ATOM     12  O   UNL     1      16.693 -19.490   1.047  1.00  0.00    -0.453 OA
ATOM     13  C   UNL     1      16.469 -20.310  -0.103  1.00  0.00    +0.284 C 
ENDBRANCH   7  12
ENDBRANCH   1   6
BRANCH   5  14
ATOM     14  N   UNL     1      14.810 -19.716   4.327  1.00  0.00    -0.313 N 
ATOM     15  C   UNL     1      15.845 -20.240   5.077  1.00  0.00    +0.256 C 
ATOM     16  O   UNL     1      16.255 -19.846   6.162  1.00  0.00    -0.269 OA
ATOM     17  H   UNL     1      14.662 -20.076   3.384  1.00  0.00    +0.171 HD
BRANCH  15  18
ATOM     18  C   UNL     1      16.554 -21.396   4.448  1.00  0.00    +0.043 A 
ATOM     19  C   UNL     1      16.104 -21.996   3.261  1.00  0.00    +0.015 A 
ATOM     20  C   UNL     1      17.685 -21.908   5.097  1.00  0.00    +0.054 A 
ATOM     21  C   UNL     1      16.803 -23.079   2.715  1.00  0.00    +0.018 A 
ATOM     22  C   UNL     1      18.374 -22.987   4.548  1.00  0.00    +0.136 A 
ATOM     23  C   UNL     1      17.954 -23.559   3.348  1.00  0.00    +0.075 A 
ATOM     24  F   UNL     1      19.449 -23.457   5.196  1.00  0.00    -0.206 F 
BRANCH  23  25
ATOM     25  C   UNL     1      18.646 -24.730   2.776  1.00  0.00    +0.256 C 
ATOM     26  O   UNL     1      18.016 -25.786   2.747  1.00  0.00    -0.269 OA
ATOM     27  N   UNL     1      19.952 -24.596   2.296  1.00  0.00    -0.339 N 
ATOM     28  C   UNL     1      20.586 -25.801   1.766  1.00  0.00    +0.120 C 
ATOM     29  C   UNL     1      20.483 -23.330   1.781  1.00  0.00    +0.120 C 
ATOM     30  C   UNL     1      22.105 -25.753   1.907  1.00  0.00    +0.022 C 
ATOM     31  C   UNL     1      21.997 -23.250   1.934  1.00  0.00    +0.022 C 
ATOM     32  C   UNL     1      22.680 -24.469   1.320  1.00  0.00    +0.004 C 
ENDBRANCH  23  25
ENDBRANCH  15  18
ENDBRANCH   5  14
TORSDOF 5
ENDMDL
MODEL 7
REMARK VINA RESULT:    -8.320      2.057      2.571
REMARK INTER + INTRA:         -11.412
REMARK INTER:                 -10.444
REMARK INTRA:                  -0.968
REMARK UNBOUND:                -0.661
REMARK SMILES COC(=O)NC(=O)c1ccsc1NC(=O)c1ccc(C(=O)N2CCCCC2)c(F)c1
REMARK SMILES IDX 8 1 9 2 10 3 11 4 12 5 6 6 3 7 4 8 5 9 7 10 2 12 1 13 13 14
REMARK SMILES IDX 14 15 15 16 16 18 17 19 30 20 18 21 28 22 19 23 29 24 20 25
REMARK SMILES IDX 21 26 22 27 23 28 27 29 24 30 26 31 25 32
REMARK H PARENT 5 11 13 17
ROOT
ATOM      1  C   UNL     1      16.446 -20.555   3.325  1.00  0.00    +0.075 A 
ATOM      2  C   UNL     1      15.755 -20.811   4.564  1.00  0.00    +0.028 A 
ATOM      3  C   UNL     1      16.141 -21.994   5.154  1.00  0.00    +0.068 A 
ATOM      4  S   UNL     1      17.321 -22.805   4.234  1.00  0.00    -0.126 S 
ATOM      5  C   UNL     1      17.336 -21.591   3.048  1.00  0.00    +0.108 A 
ENDROOT
BRANCH   1   6
ATOM      6  C   UNL     1      16.295 -19.403   2.416  1.00  0.00    +0.263 C 
ATOM      7  C   UNL     1      14.841 -17.517   1.927  1.00  0.00    +0.413 C 
ATOM      8  O   UNL     1      15.423 -17.033   0.972  1.00  0.00    -0.224 OA
ATOM      9  N   UNL     1      15.179 -18.632   2.637  1.00  0.00    -0.257 N 
ATOM     10  O   UNL     1      17.134 -19.185   1.545  1.00  0.00    -0.269 OA
ATOM     11  H   UNL     1      14.548 -18.841   3.389  1.00  0.00    +0.176 HD
BRANCH   7  12
ATOM     12  O   UNL     1      13.700 -17.009   2.467  1.00  0.00    -0.453 OA
ATOM     13  C   UNL     1      13.620 -17.140   3.889  1.00  0.00    +0.284 C 
ENDBRANCH   7  12
ENDBRANCH   1   6
BRANCH   5  14
ATOM     14  N   UNL     1      18.153 -21.676   1.930  1.00  0.00    -0.313 N 
ATOM     15  C   UNL     1      18.061 -22.570   0.882  1.00  0.00    +0.256 C 
ATOM     16  O   UNL     1      17.283 -23.510   0.769  1.00  0.00    -0.269 OA
ATOM     17  H   UNL     1      18.932 -21.018   1.942  1.00  0.00    +0.171 HD
BRANCH  15  18
ATOM     18  C   UNL     1      19.066 -22.369  -0.206  1.00  0.00    +0.043 A 
ATOM     19  C   UNL     1      18.908 -21.391  -1.202  1.00  0.00    +0.015 A 
ATOM     20  C   UNL     1      20.181 -23.217  -0.240  1.00  0.00    +0.054 A 
ATOM     21  C   UNL     1      19.877 -21.247  -2.201  1.00  0.00    +0.018 A 
ATOM     22  C   UNL     1      21.139 -23.068  -1.239  1.00  0.00    +0.136 A 
ATOM     23  C   UNL     1      21.007 -22.072  -2.204  1.00  0.00    +0.075 A 
ATOM     24  F   UNL     1      22.191 -23.899  -1.245  1.00  0.00    -0.206 F 
BRANCH  23  25
ATOM     25  C   UNL     1      21.991 -21.928  -3.295  1.00  0.00    +0.256 C 
ATOM     26  O   UNL     1      23.100 -21.493  -2.986  1.00  0.00    -0.269 OA
ATOM     27  N   UNL     1      21.637 -22.288  -4.598  1.00  0.00    -0.339 N 
ATOM     28  C   UNL     1      22.651 -22.095  -5.633  1.00  0.00    +0.120 C 
ATOM     29  C   UNL     1      20.625 -23.305  -4.894  1.00  0.00    +0.120 C 
ATOM     30  C   UNL     1      22.026 -21.855  -7.003  1.00  0.00    +0.022 C 
ATOM     31  C   UNL     1      19.968 -23.071  -6.250  1.00  0.00    +0.022 C 
ATOM     32  C   UNL     1      21.013 -22.940  -7.354  1.00  0.00    +0.004 C 
ENDBRANCH  23  25
ENDBRANCH  15  18
ENDBRANCH   5  14
TORSDOF 5
ENDMDL
MODEL 8
REMARK VINA RESULT:    -8.298      2.560      3.090
REMARK INTER + INTRA:         -11.385
REMARK INTER:                 -10.435
REMARK INTRA:                  -0.950
REMARK UNBOUND:                -0.661
REMARK SMILES COC(=O)NC(=O)c1ccsc1NC(=O)c1ccc(C(=O)N2CCCCC2)c(F)c1
REMARK SMILES IDX 8 1 9 2 10 3 11 4 12 5 6 6 3 7 4 8 5 9 7 10 2 12 1 13 13 14
REMARK SMILES IDX 14 15 15 16 16 18 17 19 30 20 18 21 28 22 19 23 29 24 20 25
REMARK SMILES IDX 21 26 22 27 23 28 27 29 24 30 26 31 25 32
REMARK H PARENT 5 11 13 17
ROOT
ATOM      1  C   UNL     1      15.578 -20.075   4.059  1.00  0.00    +0.075 A 
ATOM      2  C   UNL     1      14.565 -19.896   5.068  1.00  0.00    +0.028 A 
ATOM      3  C   UNL     1      14.602 -20.872   6.039  1.00  0.00    +0.068 A 
ATOM      4  S   UNL     1      15.837 -22.006   5.749  1.00  0.00    -0.126 S 
ATOM      5  C   UNL     1      16.338 -21.209   4.337  1.00  0.00    +0.108 A 
ENDROOT
BRANCH   1   6
ATOM      6  C   UNL     1      15.841 -19.241   2.871  1.00  0.00    +0.263 C 
ATOM      7  C   UNL     1      15.026 -17.289   1.673  1.00  0.00    +0.413 C 
ATOM      8  O   UNL     1      15.807 -17.264   0.737  1.00  0.00    -0.224 OA
ATOM      9  N   UNL     1      14.971 -18.193   2.693  1.00  0.00    -0.257 N 
ATOM     10  O   UNL     1      16.784 -19.499   2.127  1.00  0.00    -0.269 OA
ATOM     11  H   UNL     1      14.240 -18.011   3.356  1.00  0.00    +0.176 HD
BRANCH   7  12
ATOM     12  O   UNL     1      14.028 -16.384   1.862  1.00  0.00    -0.453 OA
ATOM     13  C   UNL     1      13.114 -16.735   2.905  1.00  0.00    +0.284 C 
ENDBRANCH   7  12
ENDBRANCH   1   6
BRANCH   5  14
ATOM     14  N   UNL     1      17.389 -21.685   3.566  1.00  0.00    -0.313 N 
ATOM     15  C   UNL     1      17.345 -22.656   2.585  1.00  0.00    +0.256 C 
ATOM     16  O   UNL     1      16.383 -23.337   2.251  1.00  0.00    -0.269 OA
ATOM     17  H   UNL     1      18.294 -21.286   3.815  1.00  0.00    +0.171 HD
BRANCH  15  18
ATOM     18  C   UNL     1      18.645 -22.911   1.895  1.00  0.00    +0.043 A 
ATOM     19  C   UNL     1      19.729 -22.022   1.983  1.00  0.00    +0.015 A 
ATOM     20  C   UNL     1      18.760 -24.065   1.108  1.00  0.00    +0.054 A 
ATOM     21  C   UNL     1      20.925 -22.306   1.313  1.00  0.00    +0.018 A 
ATOM     22  C   UNL     1      19.953 -24.339   0.443  1.00  0.00    +0.136 A 
ATOM     23  C   UNL     1      21.043 -23.480   0.562  1.00  0.00    +0.075 A 
ATOM     24  F   UNL     1      20.028 -25.449  -0.305  1.00  0.00    -0.206 F 
BRANCH  23  25
ATOM     25  C   UNL     1      22.300 -23.733  -0.170  1.00  0.00    +0.256 C 
ATOM     26  O   UNL     1      23.119 -24.472   0.375  1.00  0.00    -0.269 OA
ATOM     27  N   UNL     1      22.501 -23.146  -1.422  1.00  0.00    -0.339 N 
ATOM     28  C   UNL     1      23.778 -23.419  -2.079  1.00  0.00    +0.120 C 
ATOM     29  C   UNL     1      21.399 -22.789  -2.318  1.00  0.00    +0.120 C 
ATOM     30  C   UNL     1      24.188 -22.287  -3.017  1.00  0.00    +0.022 C 
ATOM     31  C   UNL     1      21.777 -21.642  -3.249  1.00  0.00    +0.022 C 
ATOM     32  C   UNL     1      23.072 -21.943  -3.998  1.00  0.00    +0.004 C 
ENDBRANCH  23  25
ENDBRANCH  15  18
ENDBRANCH   5  14
TORSDOF 5
ENDMDL
MODEL 9
REMARK VINA RESULT:    -8.294      2.956      4.659
REMARK INTER + INTRA:         -11.379
REMARK INTER:                 -10.259
REMARK INTRA:                  -1.120
REMARK UNBOUND:                -0.661
REMARK SMILES COC(=O)NC(=O)c1ccsc1NC(=O)c1ccc(C(=O)N2CCCCC2)c(F)c1
REMARK SMILES IDX 8 1 9 2 10 3 11 4 12 5 6 6 3 7 4 8 5 9 7 10 2 12 1 13 13 14
REMARK SMILES IDX 14 15 15 16 16 18 17 19 30 20 18 21 28 22 19 23 29 24 20 25
REMARK SMILES IDX 21 26 22 27 23 28 27 29 24 30 26 31 25 32
REMARK H PARENT 5 11 13 17
ROOT
ATOM      1  C   UNL     1      17.773 -22.207   1.130  1.00  0.00    +0.075 A 
ATOM      2  C   UNL     1      17.367 -22.701   2.422  1.00  0.00    +0.028 A 
ATOM      3  C   UNL     1      17.685 -24.028   2.609  1.00  0.00    +0.068 A 
ATOM      4  S   UNL     1      18.460 -24.691   1.247  1.00  0.00    -0.126 S 
ATOM      5  C   UNL     1      18.387 -23.222   0.400  1.00  0.00    +0.108 A 
ENDROOT
BRANCH   1   6
ATOM      6  C   UNL     1      17.598 -20.852   0.574  1.00  0.00    +0.263 C 
ATOM      7  C   UNL     1      16.205 -18.867   0.748  1.00  0.00    +0.413 C 
ATOM      8  O   UNL     1      16.720 -18.163  -0.103  1.00  0.00    -0.224 OA
ATOM      9  N   UNL     1      16.549 -20.139   1.102  1.00  0.00    -0.257 N 
ATOM     10  O   UNL     1      18.361 -20.433  -0.292  1.00  0.00    -0.269 OA
ATOM     11  H   UNL     1      15.981 -20.523   1.836  1.00  0.00    +0.176 HD
BRANCH   7  12
ATOM     12  O   UNL     1      15.148 -18.491   1.516  1.00  0.00    -0.453 OA
ATOM     13  C   UNL     1      15.209 -18.968   2.864  1.00  0.00    +0.284 C 
ENDBRANCH   7  12
ENDBRANCH   1   6
BRANCH   5  14
ATOM     14  N   UNL     1      18.887 -23.100  -0.889  1.00  0.00    -0.313 N 
ATOM     15  C   UNL     1      20.211 -23.062  -1.282  1.00  0.00    +0.256 C 
ATOM     16  O   UNL     1      21.203 -23.055  -0.564  1.00  0.00    -0.269 OA
ATOM     17  H   UNL     1      18.165 -22.977  -1.598  1.00  0.00    +0.171 HD
BRANCH  15  18
ATOM     18  C   UNL     1      20.425 -22.977  -2.758  1.00  0.00    +0.043 A 
ATOM     19  C   UNL     1      21.191 -23.922  -3.461  1.00  0.00    +0.015 A 
ATOM     20  C   UNL     1      19.867 -21.891  -3.445  1.00  0.00    +0.054 A 
ATOM     21  C   UNL     1      21.364 -23.794  -4.844  1.00  0.00    +0.018 A 
ATOM     22  C   UNL     1      20.046 -21.769  -4.821  1.00  0.00    +0.136 A 
ATOM     23  C   UNL     1      20.770 -22.728  -5.528  1.00  0.00    +0.075 A 
ATOM     24  F   UNL     1      19.503 -20.716  -5.447  1.00  0.00    -0.206 F 
BRANCH  23  25
ATOM     25  C   UNL     1      21.006 -22.592  -6.978  1.00  0.00    +0.256 C 
ATOM     26  O   UNL     1      20.104 -22.972  -7.724  1.00  0.00    -0.269 OA
ATOM     27  N   UNL     1      22.208 -22.046  -7.435  1.00  0.00    -0.339 N 
ATOM     28  C   UNL     1      22.387 -21.965  -8.883  1.00  0.00    +0.120 C 
ATOM     29  C   UNL     1      22.994 -21.088  -6.652  1.00  0.00    +0.120 C 
ATOM     30  C   UNL     1      23.859 -22.020  -9.279  1.00  0.00    +0.022 C 
ATOM     31  C   UNL     1      24.474 -21.143  -7.014  1.00  0.00    +0.022 C 
ATOM     32  C   UNL     1      24.682 -20.987  -8.517  1.00  0.00    +0.004 C 
ENDBRANCH  23  25
ENDBRANCH  15  18
ENDBRANCH   5  14
TORSDOF 5
ENDMDL
