MODEL 1
REMARK VINA RESULT:    -8.524      0.000      0.000
REMARK INTER + INTRA:         -13.276
REMARK INTER:                 -11.514
REMARK INTRA:                  -1.762
REMARK UNBOUND:                -1.762
REMARK SMILES CC1(c2ccc(CS(C)(=O)=O)cc2)NC(=O)N(CC(=O)c2ccc(F)cc2F)C1=O
REMARK SMILES IDX 1 1 2 2 14 3 15 4 16 5 17 6 29 7 30 8 3 10 4 11 13 12 5 13
REMARK SMILES IDX 12 14 6 15 7 16 8 17 10 18 11 19 9 20 18 21 19 22 20 23
REMARK SMILES IDX 21 24 22 25 27 26 23 27 26 28 24 29 28 30 25 31
REMARK H PARENT 14 9
ROOT
ATOM      1  C   UNL     1      18.448 -24.190   3.883  1.00  0.00    +0.051 C 
ATOM      2  C   UNL     1      17.726 -23.237   2.927  1.00  0.00    +0.144 C 
ATOM      3  N   UNL     1      16.761 -23.978   2.138  1.00  0.00    -0.319 N 
ATOM      4  C   UNL     1      17.127 -24.086   0.820  1.00  0.00    +0.325 C 
ATOM      5  O   UNL     1      16.528 -24.759  -0.002  1.00  0.00    -0.248 OA
ATOM      6  N   UNL     1      18.246 -23.347   0.615  1.00  0.00    -0.254 N 
ATOM      7  C   UNL     1      18.695 -22.816   1.792  1.00  0.00    +0.261 C 
ATOM      8  O   UNL     1      19.712 -22.144   1.926  1.00  0.00    -0.271 OA
ATOM      9  H   UNL     1      16.017 -24.549   2.513  1.00  0.00    +0.166 HD
ENDROOT
BRANCH   2  10
ATOM     10  C   UNL     1      17.115 -22.040   3.650  1.00  0.00    -0.013 A 
ATOM     11  C   UNL     1      16.689 -20.887   2.970  1.00  0.00    +0.007 A 
ATOM     12  C   UNL     1      16.955 -22.065   5.047  1.00  0.00    +0.007 A 
ATOM     13  C   UNL     1      16.124 -19.807   3.657  1.00  0.00    +0.005 A 
ATOM     14  C   UNL     1      16.391 -20.986   5.735  1.00  0.00    +0.005 A 
ATOM     15  C   UNL     1      15.961 -19.848   5.046  1.00  0.00    -0.033 A 
BRANCH  15  16
ATOM     16  C   UNL     1      15.352 -18.690   5.788  1.00  0.00    +0.172 C 
BRANCH  16  17
ATOM     17  S   UNL     1      13.602 -18.537   5.438  1.00  0.00    +0.151 S 
ATOM     18  O   UNL     1      12.954 -17.840   6.535  1.00  0.00    -0.229 OA
ATOM     19  O   UNL     1      13.132 -19.853   5.042  1.00  0.00    -0.229 OA
ATOM     20  C   UNL     1      13.501 -17.498   3.996  1.00  0.00    +0.158 C 
ENDBRANCH  16  17
ENDBRANCH  15  16
ENDBRANCH   2  10
BRANCH   6  21
ATOM     21  C   UNL     1      18.966 -23.297  -0.637  1.00  0.00    +0.211 C 
BRANCH  21  22
ATOM     22  C   UNL     1      18.173 -22.446  -1.625  1.00  0.00    +0.185 C 
ATOM     23  O   UNL     1      18.114 -22.706  -2.828  1.00  0.00    -0.292 OA
BRANCH  22  24
ATOM     24  C   UNL     1      17.440 -21.248  -1.123  1.00  0.00    +0.055 A 
ATOM     25  C   UNL     1      18.187 -20.138  -0.695  1.00  0.00    +0.018 A 
ATOM     26  C   UNL     1      16.046 -21.191  -1.051  1.00  0.00    +0.136 A 
ATOM     27  C   UNL     1      17.541 -18.995  -0.216  1.00  0.00    +0.040 A 
ATOM     28  C   UNL     1      15.397 -20.053  -0.575  1.00  0.00    +0.079 A 
ATOM     29  C   UNL     1      16.153 -18.965  -0.164  1.00  0.00    +0.126 A 
ATOM     30  F   UNL     1      15.288 -22.230  -1.425  1.00  0.00    -0.206 F 
ATOM     31  F   UNL     1      15.534 -17.870   0.296  1.00  0.00    -0.207 F 
ENDBRANCH  22  24
ENDBRANCH  21  22
ENDBRANCH   6  21
TORSDOF 6
ENDMDL
MODEL 2
REMARK VINA RESULT:    -8.235      1.292      1.559
REMARK INTER + INTRA:         -12.885
REMARK INTER:                 -10.991
REMARK INTRA:                  -1.894
REMARK UNBOUND:                -1.762
REMARK SMILES CC1(c2ccc(CS(C)(=O)=O)cc2)NC(=O)N(CC(=O)c2ccc(F)cc2F)C1=O
REMARK SMILES IDX 1 1 2 2 14 3 15 4 16 5 17 6 29 7 30 8 3 10 4 11 13 12 5 13
REMARK SMILES IDX 12 14 6 15 7 16 8 17 10 18 11 19 9 20 18 21 19 22 20 23
REMARK SMILES IDX 21 24 22 25 27 26 23 27 26 28 24 29 28 30 25 31
REMARK H PARENT 14 9
ROOT
ATOM      1  C   UNL     1      19.820 -23.727   4.048  1.00  0.00    +0.051 C 
ATOM      2  C   UNL     1      18.683 -23.299   3.115  1.00  0.00    +0.144 C 
ATOM      3  N   UNL     1      18.209 -24.448   2.368  1.00  0.00    -0.319 N 
ATOM      4  C   UNL     1      18.538 -24.386   1.038  1.00  0.00    +0.325 C 
ATOM      5  O   UNL     1      18.341 -25.290   0.243  1.00  0.00    -0.248 OA
ATOM      6  N   UNL     1      19.115 -23.185   0.786  1.00  0.00    -0.254 N 
ATOM      7  C   UNL     1      19.266 -22.470   1.942  1.00  0.00    +0.261 C 
ATOM      8  O   UNL     1      19.800 -21.371   2.032  1.00  0.00    -0.271 OA
ATOM      9  H   UNL     1      17.872 -25.309   2.775  1.00  0.00    +0.166 HD
ENDROOT
BRANCH   2  10
ATOM     10  C   UNL     1      17.569 -22.564   3.855  1.00  0.00    -0.013 A 
ATOM     11  C   UNL     1      17.784 -21.906   5.077  1.00  0.00    +0.007 A 
ATOM     12  C   UNL     1      16.270 -22.523   3.317  1.00  0.00    +0.007 A 
ATOM     13  C   UNL     1      16.747 -21.232   5.731  1.00  0.00    +0.005 A 
ATOM     14  C   UNL     1      15.232 -21.851   3.969  1.00  0.00    +0.005 A 
ATOM     15  C   UNL     1      15.462 -21.190   5.180  1.00  0.00    -0.033 A 
BRANCH  15  16
ATOM     16  C   UNL     1      14.343 -20.465   5.879  1.00  0.00    +0.172 C 
BRANCH  16  17
ATOM     17  S   UNL     1      14.422 -18.700   5.580  1.00  0.00    +0.151 S 
ATOM     18  O   UNL     1      14.726 -18.467   4.179  1.00  0.00    -0.229 OA
ATOM     19  O   UNL     1      15.278 -18.133   6.607  1.00  0.00    -0.229 OA
ATOM     20  C   UNL     1      12.776 -18.099   5.889  1.00  0.00    +0.158 C 
ENDBRANCH  16  17
ENDBRANCH  15  16
ENDBRANCH   2  10
BRANCH   6  21
ATOM     21  C   UNL     1      19.669 -22.805  -0.493  1.00  0.00    +0.211 C 
BRANCH  21  22
ATOM     22  C   UNL     1      18.542 -22.281  -1.380  1.00  0.00    +0.185 C 
ATOM     23  O   UNL     1      18.276 -22.775  -2.477  1.00  0.00    -0.292 OA
BRANCH  22  24
ATOM     24  C   UNL     1      17.730 -21.124  -0.909  1.00  0.00    +0.055 A 
ATOM     25  C   UNL     1      18.207 -19.826  -1.155  1.00  0.00    +0.018 A 
ATOM     26  C   UNL     1      16.521 -21.278  -0.224  1.00  0.00    +0.136 A 
ATOM     27  C   UNL     1      17.478 -18.713  -0.730  1.00  0.00    +0.040 A 
ATOM     28  C   UNL     1      15.790 -20.172   0.201  1.00  0.00    +0.079 A 
ATOM     29  C   UNL     1      16.276 -18.898  -0.058  1.00  0.00    +0.126 A 
ATOM     30  F   UNL     1      16.033 -22.494   0.056  1.00  0.00    -0.206 F 
ATOM     31  F   UNL     1      15.577 -17.831   0.350  1.00  0.00    -0.207 F 
ENDBRANCH  22  24
ENDBRANCH  21  22
ENDBRANCH   6  21
TORSDOF 6
ENDMDL
MODEL 3
REMARK VINA RESULT:    -7.818      3.542      7.622
REMARK INTER + INTRA:         -12.322
REMARK INTER:                 -11.512
REMARK INTRA:                  -0.810
REMARK UNBOUND:                -1.762
REMARK SMILES CC1(c2ccc(CS(C)(=O)=O)cc2)NC(=O)N(CC(=O)c2ccc(F)cc2F)C1=O
REMARK SMILES IDX 1 1 2 2 14 3 15 4 16 5 17 6 29 7 30 8 3 10 4 11 13 12 5 13
REMARK SMILES IDX 12 14 6 15 7 16 8 17 10 18 11 19 9 20 18 21 19 22 20 23
REMARK SMILES IDX 21 24 22 25 27 26 23 27 26 28 24 29 28 30 25 31
REMARK H PARENT 14 9
ROOT
ATOM      1  C   UNL     1      16.041 -23.571   0.374  1.00  0.00    +0.051 C 
ATOM      2  C   UNL     1      17.322 -22.885   0.857  1.00  0.00    +0.144 C 
ATOM      3  N   UNL     1      17.863 -23.609   1.992  1.00  0.00    -0.319 N 
ATOM      4  C   UNL     1      17.744 -22.913   3.168  1.00  0.00    +0.325 C 
ATOM      5  O   UNL     1      18.026 -23.369   4.263  1.00  0.00    -0.248 OA
ATOM      6  N   UNL     1      17.256 -21.676   2.897  1.00  0.00    -0.254 N 
ATOM      7  C   UNL     1      16.957 -21.556   1.568  1.00  0.00    +0.261 C 
ATOM      8  O   UNL     1      16.457 -20.570   1.039  1.00  0.00    -0.271 OA
ATOM      9  H   UNL     1      18.101 -24.590   1.997  1.00  0.00    +0.166 HD
ENDROOT
BRANCH   2  10
ATOM     10  C   UNL     1      18.336 -22.689  -0.267  1.00  0.00    -0.013 A 
ATOM     11  C   UNL     1      17.959 -22.291  -1.559  1.00  0.00    +0.007 A 
ATOM     12  C   UNL     1      19.706 -22.903  -0.028  1.00  0.00    +0.007 A 
ATOM     13  C   UNL     1      18.910 -22.111  -2.569  1.00  0.00    +0.005 A 
ATOM     14  C   UNL     1      20.658 -22.723  -1.036  1.00  0.00    +0.005 A 
ATOM     15  C   UNL     1      20.271 -22.316  -2.317  1.00  0.00    -0.033 A 
BRANCH  15  16
ATOM     16  C   UNL     1      21.297 -22.122  -3.399  1.00  0.00    +0.172 C 
BRANCH  16  17
ATOM     17  S   UNL     1      21.205 -23.424  -4.627  1.00  0.00    +0.151 S 
ATOM     18  O   UNL     1      20.269 -23.033  -5.667  1.00  0.00    -0.229 OA
ATOM     19  O   UNL     1      21.005 -24.671  -3.910  1.00  0.00    -0.229 OA
ATOM     20  C   UNL     1      22.827 -23.500  -5.353  1.00  0.00    +0.158 C 
ENDBRANCH  16  17
ENDBRANCH  15  16
ENDBRANCH   2  10
BRANCH   6  21
ATOM     21  C   UNL     1      16.919 -20.699   3.906  1.00  0.00    +0.211 C 
BRANCH  21  22
ATOM     22  C   UNL     1      15.442 -20.850   4.260  1.00  0.00    +0.185 C 
ATOM     23  O   UNL     1      14.880 -21.946   4.315  1.00  0.00    -0.292 OA
BRANCH  22  24
ATOM     24  C   UNL     1      14.638 -19.629   4.549  1.00  0.00    +0.055 A 
ATOM     25  C   UNL     1      13.975 -19.540   5.784  1.00  0.00    +0.018 A 
ATOM     26  C   UNL     1      14.508 -18.577   3.637  1.00  0.00    +0.136 A 
ATOM     27  C   UNL     1      13.210 -18.413   6.095  1.00  0.00    +0.040 A 
ATOM     28  C   UNL     1      13.746 -17.452   3.943  1.00  0.00    +0.079 A 
ATOM     29  C   UNL     1      13.105 -17.380   5.172  1.00  0.00    +0.126 A 
ATOM     30  F   UNL     1      15.099 -18.623   2.436  1.00  0.00    -0.206 F 
ATOM     31  F   UNL     1      12.371 -16.301   5.470  1.00  0.00    -0.207 F 
ENDBRANCH  22  24
ENDBRANCH  21  22
ENDBRANCH   6  21
TORSDOF 6
ENDMDL
MODEL 4
REMARK VINA RESULT:    -7.787      3.888      7.795
REMARK INTER + INTRA:         -12.280
REMARK INTER:                 -11.700
REMARK INTRA:                  -0.580
REMARK UNBOUND:                -1.762
REMARK SMILES CC1(c2ccc(CS(C)(=O)=O)cc2)NC(=O)N(CC(=O)c2ccc(F)cc2F)C1=O
REMARK SMILES IDX 1 1 2 2 14 3 15 4 16 5 17 6 29 7 30 8 3 10 4 11 13 12 5 13
REMARK SMILES IDX 12 14 6 15 7 16 8 17 10 18 11 19 9 20 18 21 19 22 20 23
REMARK SMILES IDX 21 24 22 25 27 26 23 27 26 28 24 29 28 30 25 31
REMARK H PARENT 14 9
ROOT
ATOM      1  C   UNL     1      15.787 -22.131  -1.162  1.00  0.00    +0.051 C 
ATOM      2  C   UNL     1      17.073 -21.930  -0.355  1.00  0.00    +0.144 C 
ATOM      3  N   UNL     1      16.964 -22.627   0.913  1.00  0.00    -0.319 N 
ATOM      4  C   UNL     1      16.855 -21.771   1.979  1.00  0.00    +0.325 C 
ATOM      5  O   UNL     1      16.640 -22.130   3.124  1.00  0.00    -0.248 OA
ATOM      6  N   UNL     1      17.007 -20.498   1.535  1.00  0.00    -0.254 N 
ATOM      7  C   UNL     1      17.125 -20.473   0.172  1.00  0.00    +0.261 C 
ATOM      8  O   UNL     1      17.227 -19.462  -0.513  1.00  0.00    -0.271 OA
ATOM      9  H   UNL     1      16.765 -23.611   1.021  1.00  0.00    +0.166 HD
ENDROOT
BRANCH   2  10
ATOM     10  C   UNL     1      18.321 -22.314  -1.144  1.00  0.00    -0.013 A 
ATOM     11  C   UNL     1      18.350 -22.324  -2.548  1.00  0.00    +0.007 A 
ATOM     12  C   UNL     1      19.503 -22.669  -0.469  1.00  0.00    +0.007 A 
ATOM     13  C   UNL     1      19.511 -22.671  -3.247  1.00  0.00    +0.005 A 
ATOM     14  C   UNL     1      20.664 -23.017  -1.166  1.00  0.00    +0.005 A 
ATOM     15  C   UNL     1      20.683 -23.013  -2.564  1.00  0.00    -0.033 A 
BRANCH  15  16
ATOM     16  C   UNL     1      21.934 -23.386  -3.312  1.00  0.00    +0.172 C 
BRANCH  16  17
ATOM     17  S   UNL     1      22.921 -21.940  -3.695  1.00  0.00    +0.151 S 
ATOM     18  O   UNL     1      22.106 -20.749  -3.531  1.00  0.00    -0.229 OA
ATOM     19  O   UNL     1      23.575 -22.197  -4.966  1.00  0.00    -0.229 OA
ATOM     20  C   UNL     1      24.198 -21.903  -2.457  1.00  0.00    +0.158 C 
ENDBRANCH  16  17
ENDBRANCH  15  16
ENDBRANCH   2  10
BRANCH   6  21
ATOM     21  C   UNL     1      16.865 -19.326   2.368  1.00  0.00    +0.211 C 
BRANCH  21  22
ATOM     22  C   UNL     1      15.434 -18.807   2.243  1.00  0.00    +0.185 C 
ATOM     23  O   UNL     1      14.928 -18.507   1.160  1.00  0.00    -0.292 OA
BRANCH  22  24
ATOM     24  C   UNL     1      14.612 -18.650   3.476  1.00  0.00    +0.055 A 
ATOM     25  C   UNL     1      14.608 -19.693   4.417  1.00  0.00    +0.018 A 
ATOM     26  C   UNL     1      13.837 -17.514   3.727  1.00  0.00    +0.136 A 
ATOM     27  C   UNL     1      13.851 -19.588   5.586  1.00  0.00    +0.040 A 
ATOM     28  C   UNL     1      13.080 -17.404   4.891  1.00  0.00    +0.079 A 
ATOM     29  C   UNL     1      13.095 -18.443   5.811  1.00  0.00    +0.126 A 
ATOM     30  F   UNL     1      13.786 -16.501   2.852  1.00  0.00    -0.206 F 
ATOM     31  F   UNL     1      12.369 -18.343   6.931  1.00  0.00    -0.207 F 
ENDBRANCH  22  24
ENDBRANCH  21  22
ENDBRANCH   6  21
TORSDOF 6
ENDMDL
MODEL 5
REMARK VINA RESULT:    -7.628      3.927      7.827
REMARK INTER + INTRA:         -12.066
REMARK INTER:                 -11.302
REMARK INTRA:                  -0.764
REMARK UNBOUND:                -1.762
REMARK SMILES CC1(c2ccc(CS(C)(=O)=O)cc2)NC(=O)N(CC(=O)c2ccc(F)cc2F)C1=O
REMARK SMILES IDX 1 1 2 2 14 3 15 4 16 5 17 6 29 7 30 8 3 10 4 11 13 12 5 13
REMARK SMILES IDX 12 14 6 15 7 16 8 17 10 18 11 19 9 20 18 21 19 22 20 23
REMARK SMILES IDX 21 24 22 25 27 26 23 27 26 28 24 29 28 30 25 31
REMARK H PARENT 14 9
ROOT
ATOM      1  C   UNL     1      20.547 -21.665   1.748  1.00  0.00    +0.051 C 
ATOM      2  C   UNL     1      19.270 -21.704   0.903  1.00  0.00    +0.144 C 
ATOM      3  N   UNL     1      18.540 -20.462   1.070  1.00  0.00    -0.319 N 
ATOM      4  C   UNL     1      17.377 -20.624   1.779  1.00  0.00    +0.325 C 
ATOM      5  O   UNL     1      16.660 -19.703   2.136  1.00  0.00    -0.248 OA
ATOM      6  N   UNL     1      17.188 -21.947   2.013  1.00  0.00    -0.254 N 
ATOM      7  C   UNL     1      18.252 -22.674   1.555  1.00  0.00    +0.261 C 
ATOM      8  O   UNL     1      18.385 -23.887   1.670  1.00  0.00    -0.271 OA
ATOM      9  H   UNL     1      18.912 -19.539   0.898  1.00  0.00    +0.166 HD
ENDROOT
BRANCH   2  10
ATOM     10  C   UNL     1      19.550 -22.042  -0.558  1.00  0.00    -0.013 A 
ATOM     11  C   UNL     1      20.590 -22.902  -0.945  1.00  0.00    +0.007 A 
ATOM     12  C   UNL     1      18.750 -21.494  -1.576  1.00  0.00    +0.007 A 
ATOM     13  C   UNL     1      20.820 -23.203  -2.292  1.00  0.00    +0.005 A 
ATOM     14  C   UNL     1      18.978 -21.792  -2.923  1.00  0.00    +0.005 A 
ATOM     15  C   UNL     1      20.011 -22.658  -3.296  1.00  0.00    -0.033 A 
BRANCH  15  16
ATOM     16  C   UNL     1      20.253 -22.980  -4.745  1.00  0.00    +0.172 C 
BRANCH  16  17
ATOM     17  S   UNL     1      20.985 -21.591  -5.608  1.00  0.00    +0.151 S 
ATOM     18  O   UNL     1      21.785 -20.817  -4.675  1.00  0.00    -0.229 OA
ATOM     19  O   UNL     1      19.919 -20.943  -6.352  1.00  0.00    -0.229 OA
ATOM     20  C   UNL     1      22.087 -22.310  -6.806  1.00  0.00    +0.158 C 
ENDBRANCH  16  17
ENDBRANCH  15  16
ENDBRANCH   2  10
BRANCH   6  21
ATOM     21  C   UNL     1      16.109 -22.483   2.810  1.00  0.00    +0.211 C 
BRANCH  21  22
ATOM     22  C   UNL     1      16.325 -22.077   4.266  1.00  0.00    +0.185 C 
ATOM     23  O   UNL     1      17.177 -22.605   4.984  1.00  0.00    -0.292 OA
BRANCH  22  24
ATOM     24  C   UNL     1      15.475 -21.002   4.851  1.00  0.00    +0.055 A 
ATOM     25  C   UNL     1      16.097 -19.822   5.293  1.00  0.00    +0.018 A 
ATOM     26  C   UNL     1      14.090 -21.126   4.988  1.00  0.00    +0.136 A 
ATOM     27  C   UNL     1      15.337 -18.790   5.850  1.00  0.00    +0.040 A 
ATOM     28  C   UNL     1      13.328 -20.099   5.542  1.00  0.00    +0.079 A 
ATOM     29  C   UNL     1      13.961 -18.939   5.966  1.00  0.00    +0.126 A 
ATOM     30  F   UNL     1      13.451 -22.239   4.604  1.00  0.00    -0.206 F 
ATOM     31  F   UNL     1      13.233 -17.950   6.500  1.00  0.00    -0.207 F 
ENDBRANCH  22  24
ENDBRANCH  21  22
ENDBRANCH   6  21
TORSDOF 6
ENDMDL
MODEL 6
REMARK VINA RESULT:    -7.616      3.576      6.964
REMARK INTER + INTRA:         -12.049
REMARK INTER:                 -11.226
REMARK INTRA:                  -0.823
REMARK UNBOUND:                -1.762
REMARK SMILES CC1(c2ccc(CS(C)(=O)=O)cc2)NC(=O)N(CC(=O)c2ccc(F)cc2F)C1=O
REMARK SMILES IDX 1 1 2 2 14 3 15 4 16 5 17 6 29 7 30 8 3 10 4 11 13 12 5 13
REMARK SMILES IDX 12 14 6 15 7 16 8 17 10 18 11 19 9 20 18 21 19 22 20 23
REMARK SMILES IDX 21 24 22 25 27 26 23 27 26 28 24 29 28 30 25 31
REMARK H PARENT 14 9
ROOT
ATOM      1  C   UNL     1      18.021 -25.250   3.092  1.00  0.00    +0.051 C 
ATOM      2  C   UNL     1      18.272 -23.764   2.818  1.00  0.00    +0.144 C 
ATOM      3  N   UNL     1      18.798 -23.132   4.012  1.00  0.00    -0.319 N 
ATOM      4  C   UNL     1      17.901 -22.272   4.594  1.00  0.00    +0.325 C 
ATOM      5  O   UNL     1      18.083 -21.716   5.665  1.00  0.00    -0.248 OA
ATOM      6  N   UNL     1      16.809 -22.172   3.794  1.00  0.00    -0.254 N 
ATOM      7  C   UNL     1      16.914 -23.022   2.728  1.00  0.00    +0.261 C 
ATOM      8  O   UNL     1      16.060 -23.185   1.864  1.00  0.00    -0.271 OA
ATOM      9  H   UNL     1      19.625 -23.426   4.511  1.00  0.00    +0.166 HD
ENDROOT
BRANCH   2  10
ATOM     10  C   UNL     1      19.146 -23.539   1.587  1.00  0.00    -0.013 A 
ATOM     11  C   UNL     1      18.999 -24.295   0.412  1.00  0.00    +0.007 A 
ATOM     12  C   UNL     1      20.138 -22.543   1.597  1.00  0.00    +0.007 A 
ATOM     13  C   UNL     1      19.808 -24.062  -0.706  1.00  0.00    +0.005 A 
ATOM     14  C   UNL     1      20.948 -22.309   0.481  1.00  0.00    +0.005 A 
ATOM     15  C   UNL     1      20.785 -23.061  -0.687  1.00  0.00    -0.033 A 
BRANCH  15  16
ATOM     16  C   UNL     1      21.657 -22.807  -1.886  1.00  0.00    +0.172 C 
BRANCH  16  17
ATOM     17  S   UNL     1      20.804 -21.819  -3.115  1.00  0.00    +0.151 S 
ATOM     18  O   UNL     1      21.774 -21.025  -3.846  1.00  0.00    -0.229 OA
ATOM     19  O   UNL     1      19.698 -21.163  -2.438  1.00  0.00    -0.229 OA
ATOM     20  C   UNL     1      20.092 -22.992  -4.247  1.00  0.00    +0.158 C 
ENDBRANCH  16  17
ENDBRANCH  15  16
ENDBRANCH   2  10
BRANCH   6  21
ATOM     21  C   UNL     1      15.623 -21.421   4.133  1.00  0.00    +0.211 C 
BRANCH  21  22
ATOM     22  C   UNL     1      15.786 -19.991   3.624  1.00  0.00    +0.185 C 
ATOM     23  O   UNL     1      16.713 -19.650   2.887  1.00  0.00    -0.292 OA
BRANCH  22  24
ATOM     24  C   UNL     1      14.792 -18.959   4.035  1.00  0.00    +0.055 A 
ATOM     25  C   UNL     1      14.345 -18.953   5.367  1.00  0.00    +0.018 A 
ATOM     26  C   UNL     1      14.281 -18.008   3.148  1.00  0.00    +0.136 A 
ATOM     27  C   UNL     1      13.413 -18.004   5.794  1.00  0.00    +0.040 A 
ATOM     28  C   UNL     1      13.351 -17.060   3.569  1.00  0.00    +0.079 A 
ATOM     29  C   UNL     1      12.927 -17.066   4.891  1.00  0.00    +0.126 A 
ATOM     30  F   UNL     1      14.656 -17.985   1.862  1.00  0.00    -0.206 F 
ATOM     31  F   UNL     1      12.033 -16.157   5.300  1.00  0.00    -0.207 F 
ENDBRANCH  22  24
ENDBRANCH  21  22
ENDBRANCH   6  21
TORSDOF 6
ENDMDL
MODEL 7
REMARK VINA RESULT:    -7.451      3.815      7.311
REMARK INTER + INTRA:         -11.826
REMARK INTER:                 -11.204
REMARK INTRA:                  -0.623
REMARK UNBOUND:                -1.762
REMARK SMILES CC1(c2ccc(CS(C)(=O)=O)cc2)NC(=O)N(CC(=O)c2ccc(F)cc2F)C1=O
REMARK SMILES IDX 1 1 2 2 14 3 15 4 16 5 17 6 29 7 30 8 3 10 4 11 13 12 5 13
REMARK SMILES IDX 12 14 6 15 7 16 8 17 10 18 11 19 9 20 18 21 19 22 20 23
REMARK SMILES IDX 21 24 22 25 27 26 23 27 26 28 24 29 28 30 25 31
REMARK H PARENT 14 9
ROOT
ATOM      1  C   UNL     1      19.476 -21.733  -0.957  1.00  0.00    +0.051 C 
ATOM      2  C   UNL     1      18.258 -22.097  -0.104  1.00  0.00    +0.144 C 
ATOM      3  N   UNL     1      17.054 -21.594  -0.737  1.00  0.00    -0.319 N 
ATOM      4  C   UNL     1      16.491 -20.550  -0.048  1.00  0.00    +0.325 C 
ATOM      5  O   UNL     1      15.541 -19.899  -0.450  1.00  0.00    -0.248 OA
ATOM      6  N   UNL     1      17.173 -20.373   1.111  1.00  0.00    -0.254 N 
ATOM      7  C   UNL     1      18.245 -21.220   1.175  1.00  0.00    +0.261 C 
ATOM      8  O   UNL     1      19.070 -21.255   2.080  1.00  0.00    -0.271 OA
ATOM      9  H   UNL     1      16.758 -21.807  -1.679  1.00  0.00    +0.166 HD
ENDROOT
BRANCH   2  10
ATOM     10  C   UNL     1      18.192 -23.590   0.208  1.00  0.00    -0.013 A 
ATOM     11  C   UNL     1      19.312 -24.318   0.640  1.00  0.00    +0.007 A 
ATOM     12  C   UNL     1      16.978 -24.287   0.074  1.00  0.00    +0.007 A 
ATOM     13  C   UNL     1      19.222 -25.684   0.928  1.00  0.00    +0.005 A 
ATOM     14  C   UNL     1      16.885 -25.652   0.361  1.00  0.00    +0.005 A 
ATOM     15  C   UNL     1      18.006 -26.365   0.800  1.00  0.00    -0.033 A 
BRANCH  15  16
ATOM     16  C   UNL     1      17.904 -27.833   1.110  1.00  0.00    +0.172 C 
BRANCH  16  17
ATOM     17  S   UNL     1      19.077 -28.786   0.147  1.00  0.00    +0.151 S 
ATOM     18  O   UNL     1      20.172 -29.203   1.006  1.00  0.00    -0.229 OA
ATOM     19  O   UNL     1      19.356 -28.024  -1.058  1.00  0.00    -0.229 OA
ATOM     20  C   UNL     1      18.194 -30.245  -0.359  1.00  0.00    +0.158 C 
ENDBRANCH  16  17
ENDBRANCH  15  16
ENDBRANCH   2  10
BRANCH   6  21
ATOM     21  C   UNL     1      16.915 -19.304   2.049  1.00  0.00    +0.211 C 
BRANCH  21  22
ATOM     22  C   UNL     1      15.930 -19.804   3.102  1.00  0.00    +0.185 C 
ATOM     23  O   UNL     1      15.965 -20.951   3.554  1.00  0.00    -0.292 OA
BRANCH  22  24
ATOM     24  C   UNL     1      14.878 -18.877   3.607  1.00  0.00    +0.055 A 
ATOM     25  C   UNL     1      14.354 -17.916   2.727  1.00  0.00    +0.018 A 
ATOM     26  C   UNL     1      14.401 -18.919   4.920  1.00  0.00    +0.136 A 
ATOM     27  C   UNL     1      13.367 -17.026   3.159  1.00  0.00    +0.040 A 
ATOM     28  C   UNL     1      13.417 -18.034   5.355  1.00  0.00    +0.079 A 
ATOM     29  C   UNL     1      12.908 -17.096   4.468  1.00  0.00    +0.126 A 
ATOM     30  F   UNL     1      14.883 -19.801   5.806  1.00  0.00    -0.206 F 
ATOM     31  F   UNL     1      11.963 -16.243   4.882  1.00  0.00    -0.207 F 
ENDBRANCH  22  24
ENDBRANCH  21  22
ENDBRANCH   6  21
TORSDOF 6
ENDMDL
MODEL 8
REMARK VINA RESULT:    -7.406      3.751      4.931
REMARK INTER + INTRA:         -11.766
REMARK INTER:                 -11.119
REMARK INTRA:                  -0.647
REMARK UNBOUND:                -1.762
REMARK SMILES CC1(c2ccc(CS(C)(=O)=O)cc2)NC(=O)N(CC(=O)c2ccc(F)cc2F)C1=O
REMARK SMILES IDX 1 1 2 2 14 3 15 4 16 5 17 6 29 7 30 8 3 10 4 11 13 12 5 13
REMARK SMILES IDX 12 14 6 15 7 16 8 17 10 18 11 19 9 20 18 21 19 22 20 23
REMARK SMILES IDX 21 24 22 25 27 26 23 27 26 28 24 29 28 30 25 31
REMARK H PARENT 14 9
ROOT
ATOM      1  C   UNL     1      16.688 -23.381  -0.735  1.00  0.00    +0.051 C 
ATOM      2  C   UNL     1      17.444 -22.067  -0.516  1.00  0.00    +0.144 C 
ATOM      3  N   UNL     1      17.210 -21.179  -1.639  1.00  0.00    -0.319 N 
ATOM      4  C   UNL     1      18.325 -21.011  -2.420  1.00  0.00    +0.325 C 
ATOM      5  O   UNL     1      18.333 -20.400  -3.476  1.00  0.00    -0.248 OA
ATOM      6  N   UNL     1      19.372 -21.641  -1.830  1.00  0.00    -0.254 N 
ATOM      7  C   UNL     1      18.963 -22.310  -0.710  1.00  0.00    +0.261 C 
ATOM      8  O   UNL     1      19.677 -23.007   0.001  1.00  0.00    -0.271 OA
ATOM      9  H   UNL     1      16.303 -20.881  -1.967  1.00  0.00    +0.166 HD
ENDROOT
BRANCH   2  10
ATOM     10  C   UNL     1      17.120 -21.427   0.831  1.00  0.00    -0.013 A 
ATOM     11  C   UNL     1      17.028 -20.036   1.001  1.00  0.00    +0.007 A 
ATOM     12  C   UNL     1      16.894 -22.234   1.961  1.00  0.00    +0.007 A 
ATOM     13  C   UNL     1      16.720 -19.476   2.245  1.00  0.00    +0.005 A 
ATOM     14  C   UNL     1      16.588 -21.676   3.206  1.00  0.00    +0.005 A 
ATOM     15  C   UNL     1      16.488 -20.289   3.359  1.00  0.00    -0.033 A 
BRANCH  15  16
ATOM     16  C   UNL     1      16.156 -19.691   4.699  1.00  0.00    +0.172 C 
BRANCH  16  17
ATOM     17  S   UNL     1      14.433 -19.209   4.789  1.00  0.00    +0.151 S 
ATOM     18  O   UNL     1      13.620 -20.387   5.036  1.00  0.00    -0.229 OA
ATOM     19  O   UNL     1      14.163 -18.378   3.629  1.00  0.00    -0.229 OA
ATOM     20  C   UNL     1      14.315 -18.155   6.217  1.00  0.00    +0.158 C 
ENDBRANCH  16  17
ENDBRANCH  15  16
ENDBRANCH   2  10
BRANCH   6  21
ATOM     21  C   UNL     1      20.688 -21.748  -2.416  1.00  0.00    +0.211 C 
BRANCH  21  22
ATOM     22  C   UNL     1      20.626 -22.730  -3.583  1.00  0.00    +0.185 C 
ATOM     23  O   UNL     1      20.342 -23.920  -3.436  1.00  0.00    -0.292 OA
BRANCH  22  24
ATOM     24  C   UNL     1      20.923 -22.239  -4.959  1.00  0.00    +0.055 A 
ATOM     25  C   UNL     1      21.835 -21.181  -5.109  1.00  0.00    +0.018 A 
ATOM     26  C   UNL     1      20.324 -22.780  -6.100  1.00  0.00    +0.136 A 
ATOM     27  C   UNL     1      22.143 -20.690  -6.381  1.00  0.00    +0.040 A 
ATOM     28  C   UNL     1      20.628 -22.293  -7.369  1.00  0.00    +0.079 A 
ATOM     29  C   UNL     1      21.537 -21.252  -7.497  1.00  0.00    +0.126 A 
ATOM     30  F   UNL     1      19.430 -23.773  -6.010  1.00  0.00    -0.206 F 
ATOM     31  F   UNL     1      21.830 -20.780  -8.715  1.00  0.00    -0.207 F 
ENDBRANCH  22  24
ENDBRANCH  21  22
ENDBRANCH   6  21
TORSDOF 6
ENDMDL
MODEL 9
REMARK VINA RESULT:    -7.121      3.557      6.966
REMARK INTER + INTRA:         -11.382
REMARK INTER:                 -10.691
REMARK INTRA:                  -0.691
REMARK UNBOUND:                -1.762
REMARK SMILES CC1(c2ccc(CS(C)(=O)=O)cc2)NC(=O)N(CC(=O)c2ccc(F)cc2F)C1=O
REMARK SMILES IDX 1 1 2 2 14 3 15 4 16 5 17 6 29 7 30 8 3 10 4 11 13 12 5 13
REMARK SMILES IDX 12 14 6 15 7 16 8 17 10 18 11 19 9 20 18 21 19 22 20 23
REMARK SMILES IDX 21 24 22 25 27 26 23 27 26 28 24 29 28 30 25 31
REMARK H PARENT 14 9
ROOT
ATOM      1  C   UNL     1      19.963 -22.470  -0.479  1.00  0.00    +0.051 C 
ATOM      2  C   UNL     1      18.663 -22.834   0.243  1.00  0.00    +0.144 C 
ATOM      3  N   UNL     1      17.544 -22.192  -0.419  1.00  0.00    -0.319 N 
ATOM      4  C   UNL     1      16.992 -21.186   0.332  1.00  0.00    +0.325 C 
ATOM      5  O   UNL     1      16.116 -20.437  -0.067  1.00  0.00    -0.248 OA
ATOM      6  N   UNL     1      17.592 -21.170   1.549  1.00  0.00    -0.254 N 
ATOM      7  C   UNL     1      18.603 -22.088   1.601  1.00  0.00    +0.261 C 
ATOM      8  O   UNL     1      19.352 -22.267   2.554  1.00  0.00    -0.271 OA
ATOM      9  H   UNL     1      17.310 -22.291  -1.396  1.00  0.00    +0.166 HD
ENDROOT
BRANCH   2  10
ATOM     10  C   UNL     1      18.485 -24.342   0.394  1.00  0.00    -0.013 A 
ATOM     11  C   UNL     1      17.221 -24.954   0.395  1.00  0.00    +0.007 A 
ATOM     12  C   UNL     1      19.609 -25.177   0.533  1.00  0.00    +0.007 A 
ATOM     13  C   UNL     1      17.086 -26.340   0.527  1.00  0.00    +0.005 A 
ATOM     14  C   UNL     1      19.476 -26.562   0.666  1.00  0.00    +0.005 A 
ATOM     15  C   UNL     1      18.212 -27.161   0.655  1.00  0.00    -0.033 A 
BRANCH  15  16
ATOM     16  C   UNL     1      18.072 -28.652   0.795  1.00  0.00    +0.172 C 
BRANCH  16  17
ATOM     17  S   UNL     1      16.619 -29.084   1.751  1.00  0.00    +0.151 S 
ATOM     18  O   UNL     1      15.462 -29.117   0.873  1.00  0.00    -0.229 OA
ATOM     19  O   UNL     1      16.610 -28.225   2.922  1.00  0.00    -0.229 OA
ATOM     20  C   UNL     1      16.913 -30.741   2.329  1.00  0.00    +0.158 C 
ENDBRANCH  16  17
ENDBRANCH  15  16
ENDBRANCH   2  10
BRANCH   6  21
ATOM     21  C   UNL     1      17.325 -20.183   2.571  1.00  0.00    +0.211 C 
BRANCH  21  22
ATOM     22  C   UNL     1      16.156 -20.667   3.425  1.00  0.00    +0.185 C 
ATOM     23  O   UNL     1      15.920 -21.862   3.614  1.00  0.00    -0.292 OA
BRANCH  22  24
ATOM     24  C   UNL     1      15.255 -19.660   4.055  1.00  0.00    +0.055 A 
ATOM     25  C   UNL     1      15.022 -19.743   5.438  1.00  0.00    +0.018 A 
ATOM     26  C   UNL     1      14.627 -18.647   3.326  1.00  0.00    +0.136 A 
ATOM     27  C   UNL     1      14.184 -18.821   6.069  1.00  0.00    +0.040 A 
ATOM     28  C   UNL     1      13.790 -17.725   3.951  1.00  0.00    +0.079 A 
ATOM     29  C   UNL     1      13.578 -17.820   5.319  1.00  0.00    +0.126 A 
ATOM     30  F   UNL     1      14.796 -18.538   2.002  1.00  0.00    -0.206 F 
ATOM     31  F   UNL     1      12.775 -16.937   5.924  1.00  0.00    -0.207 F 
ENDBRANCH  22  24
ENDBRANCH  21  22
ENDBRANCH   6  21
TORSDOF 6
ENDMDL
