MODEL 1
REMARK VINA RESULT:    -9.228      0.000      0.000
REMARK INTER + INTRA:         -13.411
REMARK INTER:                 -12.196
REMARK INTRA:                  -1.216
REMARK UNBOUND:                -1.216
REMARK SMILES CC1(c2ccc(S(N)(=O)=O)cc2)NC(=O)N(CC(=O)c2ccc(F)c(Cl)c2)C1=O
REMARK SMILES IDX 1 1 2 2 13 3 14 4 15 5 16 6 28 7 29 8 3 10 4 11 12 12 5 13
REMARK SMILES IDX 11 14 6 15 7 16 9 17 10 18 8 19 17 22 18 23 19 24 20 25
REMARK SMILES IDX 21 26 27 27 22 28 25 29 23 30 26 31 24 32
REMARK H PARENT 13 9 8 20 8 21
ROOT
ATOM      1  C   UNL     1      18.383 -22.362  -2.496  1.00  0.00    +0.051 C 
ATOM      2  C   UNL     1      18.502 -21.441  -1.280  1.00  0.00    +0.144 C 
ATOM      3  N   UNL     1      18.759 -20.085  -1.723  1.00  0.00    -0.319 N 
ATOM      4  C   UNL     1      17.745 -19.216  -1.412  1.00  0.00    +0.325 C 
ATOM      5  O   UNL     1      17.731 -18.041  -1.733  1.00  0.00    -0.248 OA
ATOM      6  N   UNL     1      16.778 -19.894  -0.743  1.00  0.00    -0.254 N 
ATOM      7  C   UNL     1      17.103 -21.219  -0.649  1.00  0.00    +0.261 C 
ATOM      8  O   UNL     1      16.380 -22.087  -0.175  1.00  0.00    -0.271 OA
ATOM      9  H   UNL     1      19.560 -19.785  -2.262  1.00  0.00    +0.166 HD
ENDROOT
BRANCH   2  10
ATOM     10  C   UNL     1      19.516 -21.943  -0.255  1.00  0.00    -0.013 A 
ATOM     11  C   UNL     1      19.427 -21.519   1.087  1.00  0.00    +0.008 A 
ATOM     12  C   UNL     1      20.552 -22.834  -0.595  1.00  0.00    +0.008 A 
ATOM     13  C   UNL     1      20.336 -21.964   2.051  1.00  0.00    +0.022 A 
ATOM     14  C   UNL     1      21.463 -23.284   0.365  1.00  0.00    +0.022 A 
ATOM     15  C   UNL     1      21.357 -22.838   1.682  1.00  0.00    +0.082 A 
BRANCH  15  16
ATOM     16  S   UNL     1      22.486 -23.432   2.906  1.00  0.00    +0.238 S 
ATOM     17  O   UNL     1      23.556 -22.475   3.068  1.00  0.00    -0.207 OA
ATOM     18  O   UNL     1      22.731 -24.838   2.684  1.00  0.00    -0.207 OA
BRANCH  16  19
ATOM     19  N   UNL     1      21.564 -23.334   4.305  1.00  0.00    -0.225 NA
ATOM     20  H   UNL     1      21.667 -24.192   4.848  1.00  0.00    +0.137 HD
ATOM     21  H   UNL     1      21.807 -22.489   4.823  1.00  0.00    +0.137 HD
ENDBRANCH  16  19
ENDBRANCH  15  16
ENDBRANCH   2  10
BRANCH   6  22
ATOM     22  C   UNL     1      15.550 -19.307  -0.252  1.00  0.00    +0.211 C 
BRANCH  22  23
ATOM     23  C   UNL     1      15.710 -18.406   0.967  1.00  0.00    +0.182 C 
ATOM     24  O   UNL     1      15.916 -17.198   0.876  1.00  0.00    -0.292 OA
BRANCH  23  25
ATOM     25  C   UNL     1      15.617 -18.985   2.317  1.00  0.00    +0.021 A 
ATOM     26  C   UNL     1      16.503 -20.000   2.693  1.00  0.00    +0.015 A 
ATOM     27  C   UNL     1      14.634 -18.516   3.193  1.00  0.00    +0.035 A 
ATOM     28  C   UNL     1      16.416 -20.539   3.977  1.00  0.00    +0.041 A 
ATOM     29  C   UNL     1      14.558 -19.061   4.475  1.00  0.00    +0.077 A 
ATOM     30  C   UNL     1      15.447 -20.067   4.860  1.00  0.00    +0.141 A 
ATOM     31 Cl   UNL     1      13.376 -18.468   5.575  1.00  0.00    -0.081 Cl
ATOM     32  F   UNL     1      15.392 -20.591   6.093  1.00  0.00    -0.205 F 
ENDBRANCH  23  25
ENDBRANCH  22  23
ENDBRANCH   6  22
TORSDOF 6
ENDMDL
MODEL 2
REMARK VINA RESULT:    -9.047      3.738      6.638
REMARK INTER + INTRA:         -13.172
REMARK INTER:                 -11.342
REMARK INTRA:                  -1.830
REMARK UNBOUND:                -1.216
REMARK SMILES CC1(c2ccc(S(N)(=O)=O)cc2)NC(=O)N(CC(=O)c2ccc(F)c(Cl)c2)C1=O
REMARK SMILES IDX 1 1 2 2 13 3 14 4 15 5 16 6 28 7 29 8 3 10 4 11 12 12 5 13
REMARK SMILES IDX 11 14 6 15 7 16 9 17 10 18 8 19 17 22 18 23 19 24 20 25
REMARK SMILES IDX 21 26 27 27 22 28 25 29 23 30 26 31 24 32
REMARK H PARENT 13 9 8 20 8 21
ROOT
ATOM      1  C   UNL     1      18.602 -23.874   4.645  1.00  0.00    +0.051 C 
ATOM      2  C   UNL     1      18.470 -22.873   3.495  1.00  0.00    +0.144 C 
ATOM      3  N   UNL     1      19.773 -22.323   3.180  1.00  0.00    -0.319 N 
ATOM      4  C   UNL     1      20.208 -22.654   1.923  1.00  0.00    +0.325 C 
ATOM      5  O   UNL     1      21.294 -22.339   1.470  1.00  0.00    -0.248 OA
ATOM      6  N   UNL     1      19.253 -23.404   1.315  1.00  0.00    -0.254 N 
ATOM      7  C   UNL     1      18.208 -23.629   2.168  1.00  0.00    +0.261 C 
ATOM      8  O   UNL     1      17.245 -24.345   1.923  1.00  0.00    -0.271 OA
ATOM      9  H   UNL     1      20.359 -21.799   3.816  1.00  0.00    +0.166 HD
ENDROOT
BRANCH   2  10
ATOM     10  C   UNL     1      17.412 -21.805   3.761  1.00  0.00    -0.013 A 
ATOM     11  C   UNL     1      16.785 -21.737   5.022  1.00  0.00    +0.008 A 
ATOM     12  C   UNL     1      17.033 -20.862   2.787  1.00  0.00    +0.008 A 
ATOM     13  C   UNL     1      15.817 -20.768   5.301  1.00  0.00    +0.022 A 
ATOM     14  C   UNL     1      16.066 -19.890   3.059  1.00  0.00    +0.022 A 
ATOM     15  C   UNL     1      15.455 -19.854   4.313  1.00  0.00    +0.082 A 
BRANCH  15  16
ATOM     16  S   UNL     1      14.257 -18.604   4.672  1.00  0.00    +0.238 S 
ATOM     17  O   UNL     1      13.145 -19.202   5.374  1.00  0.00    -0.207 OA
ATOM     18  O   UNL     1      14.079 -17.768   3.508  1.00  0.00    -0.207 OA
BRANCH  16  19
ATOM     19  N   UNL     1      15.066 -17.664   5.803  1.00  0.00    -0.225 NA
ATOM     20  H   UNL     1      16.069 -17.842   5.748  1.00  0.00    +0.137 HD
ATOM     21  H   UNL     1      14.816 -16.681   5.679  1.00  0.00    +0.137 HD
ENDBRANCH  16  19
ENDBRANCH  15  16
ENDBRANCH   2  10
BRANCH   6  22
ATOM     22  C   UNL     1      19.356 -23.939  -0.026  1.00  0.00    +0.211 C 
BRANCH  22  23
ATOM     23  C   UNL     1      19.270 -22.904  -1.140  1.00  0.00    +0.182 C 
ATOM     24  O   UNL     1      20.032 -22.903  -2.105  1.00  0.00    -0.292 OA
BRANCH  23  25
ATOM     25  C   UNL     1      18.240 -21.854  -1.080  1.00  0.00    +0.021 A 
ATOM     26  C   UNL     1      18.605 -20.551  -0.730  1.00  0.00    +0.015 A 
ATOM     27  C   UNL     1      16.912 -22.185  -1.364  1.00  0.00    +0.035 A 
ATOM     28  C   UNL     1      17.626 -19.558  -0.683  1.00  0.00    +0.041 A 
ATOM     29  C   UNL     1      15.942 -21.185  -1.316  1.00  0.00    +0.077 A 
ATOM     30  C   UNL     1      16.303 -19.879  -0.978  1.00  0.00    +0.141 A 
ATOM     31 Cl   UNL     1      14.310 -21.572  -1.697  1.00  0.00    -0.081 Cl
ATOM     32  F   UNL     1      15.383 -18.904  -0.939  1.00  0.00    -0.205 F 
ENDBRANCH  23  25
ENDBRANCH  22  23
ENDBRANCH   6  22
TORSDOF 6
ENDMDL
MODEL 3
REMARK VINA RESULT:    -8.635      3.518      6.390
REMARK INTER + INTRA:         -12.628
REMARK INTER:                 -11.182
REMARK INTRA:                  -1.446
REMARK UNBOUND:                -1.216
REMARK SMILES CC1(c2ccc(S(N)(=O)=O)cc2)NC(=O)N(CC(=O)c2ccc(F)c(Cl)c2)C1=O
REMARK SMILES IDX 1 1 2 2 13 3 14 4 15 5 16 6 28 7 29 8 3 10 4 11 12 12 5 13
REMARK SMILES IDX 11 14 6 15 7 16 9 17 10 18 8 19 17 22 18 23 19 24 20 25
REMARK SMILES IDX 21 26 27 27 22 28 25 29 23 30 26 31 24 32
REMARK H PARENT 13 9 8 20 8 21
ROOT
ATOM      1  C   UNL     1      17.337 -18.433  -0.646  1.00  0.00    +0.051 C 
ATOM      2  C   UNL     1      16.614 -19.471   0.215  1.00  0.00    +0.144 C 
ATOM      3  N   UNL     1      15.897 -20.395  -0.641  1.00  0.00    -0.319 N 
ATOM      4  C   UNL     1      16.371 -21.679  -0.562  1.00  0.00    +0.325 C 
ATOM      5  O   UNL     1      15.948 -22.605  -1.231  1.00  0.00    -0.248 OA
ATOM      6  N   UNL     1      17.389 -21.714   0.336  1.00  0.00    -0.254 N 
ATOM      7  C   UNL     1      17.642 -20.461   0.819  1.00  0.00    +0.261 C 
ATOM      8  O   UNL     1      18.560 -20.174   1.578  1.00  0.00    -0.271 OA
ATOM      9  H   UNL     1      15.162 -20.146  -1.288  1.00  0.00    +0.166 HD
ENDROOT
BRANCH   2  10
ATOM     10  C   UNL     1      15.734 -18.836   1.289  1.00  0.00    -0.013 A 
ATOM     11  C   UNL     1      15.603 -19.460   2.547  1.00  0.00    +0.008 A 
ATOM     12  C   UNL     1      15.039 -17.630   1.078  1.00  0.00    +0.008 A 
ATOM     13  C   UNL     1      14.810 -18.903   3.555  1.00  0.00    +0.022 A 
ATOM     14  C   UNL     1      14.244 -17.068   2.082  1.00  0.00    +0.022 A 
ATOM     15  C   UNL     1      14.126 -17.713   3.313  1.00  0.00    +0.082 A 
BRANCH  15  16
ATOM     16  S   UNL     1      13.151 -16.987   4.596  1.00  0.00    +0.238 S 
ATOM     17  O   UNL     1      11.891 -16.548   4.043  1.00  0.00    -0.207 OA
ATOM     18  O   UNL     1      13.987 -16.126   5.399  1.00  0.00    -0.207 OA
BRANCH  16  19
ATOM     19  N   UNL     1      12.795 -18.317   5.556  1.00  0.00    -0.225 NA
ATOM     20  H   UNL     1      13.575 -18.509   6.185  1.00  0.00    +0.137 HD
ATOM     21  H   UNL     1      11.906 -18.171   6.037  1.00  0.00    +0.137 HD
ENDBRANCH  16  19
ENDBRANCH  15  16
ENDBRANCH   2  10
BRANCH   6  22
ATOM     22  C   UNL     1      18.137 -22.902   0.685  1.00  0.00    +0.211 C 
BRANCH  22  23
ATOM     23  C   UNL     1      17.570 -23.700   1.853  1.00  0.00    +0.182 C 
ATOM     24  O   UNL     1      17.363 -24.910   1.791  1.00  0.00    -0.292 OA
BRANCH  23  25
ATOM     25  C   UNL     1      17.252 -23.015   3.116  1.00  0.00    +0.021 A 
ATOM     26  C   UNL     1      18.292 -22.601   3.955  1.00  0.00    +0.015 A 
ATOM     27  C   UNL     1      15.914 -22.801   3.458  1.00  0.00    +0.035 A 
ATOM     28  C   UNL     1      17.985 -21.944   5.147  1.00  0.00    +0.041 A 
ATOM     29  C   UNL     1      15.619 -22.141   4.650  1.00  0.00    +0.077 A 
ATOM     30  C   UNL     1      16.654 -21.716   5.487  1.00  0.00    +0.141 A 
ATOM     31 Cl   UNL     1      13.976 -21.841   5.065  1.00  0.00    -0.081 Cl
ATOM     32  F   UNL     1      16.384 -21.070   6.631  1.00  0.00    -0.205 F 
ENDBRANCH  23  25
ENDBRANCH  22  23
ENDBRANCH   6  22
TORSDOF 6
ENDMDL
MODEL 4
REMARK VINA RESULT:    -8.631      3.076      4.049
REMARK INTER + INTRA:         -12.622
REMARK INTER:                 -11.976
REMARK INTRA:                  -0.646
REMARK UNBOUND:                -1.216
REMARK SMILES CC1(c2ccc(S(N)(=O)=O)cc2)NC(=O)N(CC(=O)c2ccc(F)c(Cl)c2)C1=O
REMARK SMILES IDX 1 1 2 2 13 3 14 4 15 5 16 6 28 7 29 8 3 10 4 11 12 12 5 13
REMARK SMILES IDX 11 14 6 15 7 16 9 17 10 18 8 19 17 22 18 23 19 24 20 25
REMARK SMILES IDX 21 26 27 27 22 28 25 29 23 30 26 31 24 32
REMARK H PARENT 13 9 8 20 8 21
ROOT
ATOM      1  C   UNL     1      15.997 -23.052  -0.707  1.00  0.00    +0.051 C 
ATOM      2  C   UNL     1      16.995 -21.892  -0.748  1.00  0.00    +0.144 C 
ATOM      3  N   UNL     1      16.331 -20.702  -1.243  1.00  0.00    -0.319 N 
ATOM      4  C   UNL     1      16.262 -19.698  -0.312  1.00  0.00    +0.325 C 
ATOM      5  O   UNL     1      15.705 -18.631  -0.498  1.00  0.00    -0.248 OA
ATOM      6  N   UNL     1      16.871 -20.117   0.827  1.00  0.00    -0.254 N 
ATOM      7  C   UNL     1      17.299 -21.409   0.692  1.00  0.00    +0.261 C 
ATOM      8  O   UNL     1      17.805 -22.077   1.586  1.00  0.00    -0.271 OA
ATOM      9  H   UNL     1      15.896 -20.606  -2.150  1.00  0.00    +0.166 HD
ENDROOT
BRANCH   2  10
ATOM     10  C   UNL     1      18.269 -22.236  -1.516  1.00  0.00    -0.013 A 
ATOM     11  C   UNL     1      18.573 -21.553  -2.711  1.00  0.00    +0.008 A 
ATOM     12  C   UNL     1      19.174 -23.218  -1.071  1.00  0.00    +0.008 A 
ATOM     13  C   UNL     1      19.734 -21.838  -3.435  1.00  0.00    +0.022 A 
ATOM     14  C   UNL     1      20.337 -23.508  -1.791  1.00  0.00    +0.022 A 
ATOM     15  C   UNL     1      20.607 -22.823  -2.975  1.00  0.00    +0.082 A 
BRANCH  15  16
ATOM     16  S   UNL     1      22.094 -23.163  -3.869  1.00  0.00    +0.238 S 
ATOM     17  O   UNL     1      23.137 -23.521  -2.936  1.00  0.00    -0.207 OA
ATOM     18  O   UNL     1      22.277 -22.154  -4.887  1.00  0.00    -0.207 OA
BRANCH  16  19
ATOM     19  N   UNL     1      21.695 -24.576  -4.681  1.00  0.00    -0.225 NA
ATOM     20  H   UNL     1      22.391 -24.770  -5.402  1.00  0.00    +0.137 HD
ATOM     21  H   UNL     1      21.573 -25.338  -4.013  1.00  0.00    +0.137 HD
ENDBRANCH  16  19
ENDBRANCH  15  16
ENDBRANCH   2  10
BRANCH   6  22
ATOM     22  C   UNL     1      16.996 -19.326   2.033  1.00  0.00    +0.211 C 
BRANCH  22  23
ATOM     23  C   UNL     1      16.015 -19.684   3.142  1.00  0.00    +0.182 C 
ATOM     24  O   UNL     1      16.107 -20.717   3.801  1.00  0.00    -0.292 OA
BRANCH  23  25
ATOM     25  C   UNL     1      14.905 -18.769   3.454  1.00  0.00    +0.021 A 
ATOM     26  C   UNL     1      14.526 -17.802   2.518  1.00  0.00    +0.015 A 
ATOM     27  C   UNL     1      14.258 -18.878   4.689  1.00  0.00    +0.035 A 
ATOM     28  C   UNL     1      13.468 -16.943   2.816  1.00  0.00    +0.041 A 
ATOM     29  C   UNL     1      13.200 -18.016   4.975  1.00  0.00    +0.077 A 
ATOM     30  C   UNL     1      12.811 -17.056   4.039  1.00  0.00    +0.141 A 
ATOM     31 Cl   UNL     1      12.373 -18.163   6.476  1.00  0.00    -0.081 Cl
ATOM     32  F   UNL     1      11.788 -16.227   4.296  1.00  0.00    -0.205 F 
ENDBRANCH  23  25
ENDBRANCH  22  23
ENDBRANCH   6  22
TORSDOF 6
ENDMDL
MODEL 5
REMARK VINA RESULT:    -8.620      3.576      6.287
REMARK INTER + INTRA:         -12.607
REMARK INTER:                 -11.285
REMARK INTRA:                  -1.322
REMARK UNBOUND:                -1.216
REMARK SMILES CC1(c2ccc(S(N)(=O)=O)cc2)NC(=O)N(CC(=O)c2ccc(F)c(Cl)c2)C1=O
REMARK SMILES IDX 1 1 2 2 13 3 14 4 15 5 16 6 28 7 29 8 3 10 4 11 12 12 5 13
REMARK SMILES IDX 11 14 6 15 7 16 9 17 10 18 8 19 17 22 18 23 19 24 20 25
REMARK SMILES IDX 21 26 27 27 22 28 25 29 23 30 26 31 24 32
REMARK H PARENT 13 9 8 20 8 21
ROOT
ATOM      1  C   UNL     1      17.304 -18.522  -0.766  1.00  0.00    +0.051 C 
ATOM      2  C   UNL     1      16.656 -19.713  -0.058  1.00  0.00    +0.144 C 
ATOM      3  N   UNL     1      15.734 -20.370  -0.963  1.00  0.00    -0.319 N 
ATOM      4  C   UNL     1      16.110 -21.650  -1.280  1.00  0.00    +0.325 C 
ATOM      5  O   UNL     1      15.509 -22.366  -2.061  1.00  0.00    -0.248 OA
ATOM      6  N   UNL     1      17.259 -21.944  -0.618  1.00  0.00    -0.254 N 
ATOM      7  C   UNL     1      17.689 -20.859   0.096  1.00  0.00    +0.261 C 
ATOM      8  O   UNL     1      18.741 -20.803   0.720  1.00  0.00    -0.271 OA
ATOM      9  H   UNL     1      14.922 -19.942  -1.388  1.00  0.00    +0.166 HD
ENDROOT
BRANCH   2  10
ATOM     10  C   UNL     1      16.022 -19.334   1.278  1.00  0.00    -0.013 A 
ATOM     11  C   UNL     1      15.131 -18.244   1.347  1.00  0.00    +0.008 A 
ATOM     12  C   UNL     1      16.288 -20.042   2.466  1.00  0.00    +0.008 A 
ATOM     13  C   UNL     1      14.528 -17.873   2.552  1.00  0.00    +0.022 A 
ATOM     14  C   UNL     1      15.689 -19.676   3.675  1.00  0.00    +0.022 A 
ATOM     15  C   UNL     1      14.819 -18.586   3.714  1.00  0.00    +0.082 A 
BRANCH  15  16
ATOM     16  S   UNL     1      14.032 -18.143   5.234  1.00  0.00    +0.238 S 
ATOM     17  O   UNL     1      13.409 -19.314   5.805  1.00  0.00    -0.207 OA
ATOM     18  O   UNL     1      13.323 -16.897   5.056  1.00  0.00    -0.207 OA
BRANCH  16  19
ATOM     19  N   UNL     1      15.348 -17.794   6.216  1.00  0.00    -0.225 NA
ATOM     20  H   UNL     1      15.950 -18.615   6.293  1.00  0.00    +0.137 HD
ATOM     21  H   UNL     1      15.829 -16.963   5.870  1.00  0.00    +0.137 HD
ENDBRANCH  16  19
ENDBRANCH  15  16
ENDBRANCH   2  10
BRANCH   6  22
ATOM     22  C   UNL     1      17.958 -23.207  -0.703  1.00  0.00    +0.211 C 
BRANCH  22  23
ATOM     23  C   UNL     1      17.682 -24.174   0.442  1.00  0.00    +0.182 C 
ATOM     24  O   UNL     1      17.009 -25.193   0.301  1.00  0.00    -0.292 OA
BRANCH  23  25
ATOM     25  C   UNL     1      18.234 -23.898   1.778  1.00  0.00    +0.021 A 
ATOM     26  C   UNL     1      19.603 -24.074   2.006  1.00  0.00    +0.015 A 
ATOM     27  C   UNL     1      17.376 -23.475   2.796  1.00  0.00    +0.035 A 
ATOM     28  C   UNL     1      20.123 -23.802   3.272  1.00  0.00    +0.041 A 
ATOM     29  C   UNL     1      17.907 -23.203   4.057  1.00  0.00    +0.077 A 
ATOM     30  C   UNL     1      19.274 -23.367   4.288  1.00  0.00    +0.141 A 
ATOM     31 Cl   UNL     1      16.866 -22.648   5.310  1.00  0.00    -0.081 Cl
ATOM     32  F   UNL     1      19.800 -23.099   5.492  1.00  0.00    -0.205 F 
ENDBRANCH  23  25
ENDBRANCH  22  23
ENDBRANCH   6  22
TORSDOF 6
ENDMDL
MODEL 6
REMARK VINA RESULT:    -8.502      1.608      2.014
REMARK INTER + INTRA:         -12.452
REMARK INTER:                 -11.558
REMARK INTRA:                  -0.893
REMARK UNBOUND:                -1.216
REMARK SMILES CC1(c2ccc(S(N)(=O)=O)cc2)NC(=O)N(CC(=O)c2ccc(F)c(Cl)c2)C1=O
REMARK SMILES IDX 1 1 2 2 13 3 14 4 15 5 16 6 28 7 29 8 3 10 4 11 12 12 5 13
REMARK SMILES IDX 11 14 6 15 7 16 9 17 10 18 8 19 17 22 18 23 19 24 20 25
REMARK SMILES IDX 21 26 27 27 22 28 25 29 23 30 26 31 24 32
REMARK H PARENT 13 9 8 20 8 21
ROOT
ATOM      1  C   UNL     1      17.928 -22.434  -2.433  1.00  0.00    +0.051 C 
ATOM      2  C   UNL     1      18.309 -21.631  -1.187  1.00  0.00    +0.144 C 
ATOM      3  N   UNL     1      18.712 -20.295  -1.577  1.00  0.00    -0.319 N 
ATOM      4  C   UNL     1      17.874 -19.319  -1.101  1.00  0.00    +0.325 C 
ATOM      5  O   UNL     1      17.997 -18.133  -1.348  1.00  0.00    -0.248 OA
ATOM      6  N   UNL     1      16.896 -19.906  -0.364  1.00  0.00    -0.254 N 
ATOM      7  C   UNL     1      17.034 -21.266  -0.386  1.00  0.00    +0.261 C 
ATOM      8  O   UNL     1      16.247 -22.059   0.117  1.00  0.00    -0.271 OA
ATOM      9  H   UNL     1      19.486 -20.068  -2.187  1.00  0.00    +0.166 HD
ENDROOT
BRANCH   2  10
ATOM     10  C   UNL     1      19.344 -22.343  -0.319  1.00  0.00    -0.013 A 
ATOM     11  C   UNL     1      19.708 -21.797   0.929  1.00  0.00    +0.008 A 
ATOM     12  C   UNL     1      19.956 -23.548  -0.713  1.00  0.00    +0.008 A 
ATOM     13  C   UNL     1      20.647 -22.426   1.751  1.00  0.00    +0.022 A 
ATOM     14  C   UNL     1      20.896 -24.183   0.105  1.00  0.00    +0.022 A 
ATOM     15  C   UNL     1      21.244 -23.613   1.330  1.00  0.00    +0.082 A 
BRANCH  15  16
ATOM     16  S   UNL     1      22.406 -24.430   2.382  1.00  0.00    +0.238 S 
ATOM     17  O   UNL     1      22.544 -23.680   3.609  1.00  0.00    -0.207 OA
ATOM     18  O   UNL     1      23.544 -24.850   1.598  1.00  0.00    -0.207 OA
BRANCH  16  19
ATOM     19  N   UNL     1      21.578 -25.833   2.789  1.00  0.00    -0.225 NA
ATOM     20  H   UNL     1      21.374 -25.837   3.789  1.00  0.00    +0.137 HD
ATOM     21  H   UNL     1      20.749 -25.930   2.200  1.00  0.00    +0.137 HD
ENDBRANCH  16  19
ENDBRANCH  15  16
ENDBRANCH   2  10
BRANCH   6  22
ATOM     22  C   UNL     1      15.826 -19.194   0.300  1.00  0.00    +0.211 C 
BRANCH  22  23
ATOM     23  C   UNL     1      16.001 -19.027   1.805  1.00  0.00    +0.182 C 
ATOM     24  O   UNL     1      16.995 -19.429   2.405  1.00  0.00    -0.292 OA
BRANCH  23  25
ATOM     25  C   UNL     1      14.951 -18.358   2.589  1.00  0.00    +0.021 A 
ATOM     26  C   UNL     1      14.269 -17.268   2.039  1.00  0.00    +0.015 A 
ATOM     27  C   UNL     1      14.663 -18.821   3.877  1.00  0.00    +0.035 A 
ATOM     28  C   UNL     1      13.269 -16.644   2.784  1.00  0.00    +0.041 A 
ATOM     29  C   UNL     1      13.659 -18.191   4.611  1.00  0.00    +0.077 A 
ATOM     30  C   UNL     1      12.968 -17.108   4.062  1.00  0.00    +0.141 A 
ATOM     31 Cl   UNL     1      13.271 -18.773   6.183  1.00  0.00    -0.081 Cl
ATOM     32  F   UNL     1      11.992 -16.500   4.753  1.00  0.00    -0.205 F 
ENDBRANCH  23  25
ENDBRANCH  22  23
ENDBRANCH   6  22
TORSDOF 6
ENDMDL
MODEL 7
REMARK VINA RESULT:    -8.330      3.222      4.848
REMARK INTER + INTRA:         -12.224
REMARK INTER:                 -11.296
REMARK INTRA:                  -0.928
REMARK UNBOUND:                -1.216
REMARK SMILES CC1(c2ccc(S(N)(=O)=O)cc2)NC(=O)N(CC(=O)c2ccc(F)c(Cl)c2)C1=O
REMARK SMILES IDX 1 1 2 2 13 3 14 4 15 5 16 6 28 7 29 8 3 10 4 11 12 12 5 13
REMARK SMILES IDX 11 14 6 15 7 16 9 17 10 18 8 19 17 22 18 23 19 24 20 25
REMARK SMILES IDX 21 26 27 27 22 28 25 29 23 30 26 31 24 32
REMARK H PARENT 13 9 8 20 8 21
ROOT
ATOM      1  C   UNL     1      20.222 -24.169   1.372  1.00  0.00    +0.051 C 
ATOM      2  C   UNL     1      19.179 -23.266   0.709  1.00  0.00    +0.144 C 
ATOM      3  N   UNL     1      17.863 -23.853   0.861  1.00  0.00    -0.319 N 
ATOM      4  C   UNL     1      17.020 -23.092   1.629  1.00  0.00    +0.325 C 
ATOM      5  O   UNL     1      15.885 -23.420   1.926  1.00  0.00    -0.248 OA
ATOM      6  N   UNL     1      17.676 -21.969   2.016  1.00  0.00    -0.254 N 
ATOM      7  C   UNL     1      18.967 -21.991   1.565  1.00  0.00    +0.261 C 
ATOM      8  O   UNL     1      19.818 -21.152   1.834  1.00  0.00    -0.271 OA
ATOM      9  H   UNL     1      17.578 -24.756   0.507  1.00  0.00    +0.166 HD
ENDROOT
BRANCH   2  10
ATOM     10  C   UNL     1      19.525 -22.929  -0.740  1.00  0.00    -0.013 A 
ATOM     11  C   UNL     1      20.739 -23.383  -1.295  1.00  0.00    +0.008 A 
ATOM     12  C   UNL     1      18.667 -22.175  -1.563  1.00  0.00    +0.008 A 
ATOM     13  C   UNL     1      21.084 -23.098  -2.619  1.00  0.00    +0.022 A 
ATOM     14  C   UNL     1      19.006 -21.887  -2.888  1.00  0.00    +0.022 A 
ATOM     15  C   UNL     1      20.218 -22.341  -3.407  1.00  0.00    +0.082 A 
BRANCH  15  16
ATOM     16  S   UNL     1      20.634 -22.007  -5.093  1.00  0.00    +0.238 S 
ATOM     17  O   UNL     1      20.326 -23.168  -5.896  1.00  0.00    -0.207 OA
ATOM     18  O   UNL     1      21.918 -21.348  -5.144  1.00  0.00    -0.207 OA
BRANCH  16  19
ATOM     19  N   UNL     1      19.497 -20.844  -5.507  1.00  0.00    -0.225 NA
ATOM     20  H   UNL     1      19.965 -19.960  -5.711  1.00  0.00    +0.137 HD
ATOM     21  H   UNL     1      18.913 -21.186  -6.271  1.00  0.00    +0.137 HD
ENDBRANCH  16  19
ENDBRANCH  15  16
ENDBRANCH   2  10
BRANCH   6  22
ATOM     22  C   UNL     1      17.106 -20.924   2.839  1.00  0.00    +0.211 C 
BRANCH  22  23
ATOM     23  C   UNL     1      16.509 -19.752   2.069  1.00  0.00    +0.182 C 
ATOM     24  O   UNL     1      16.864 -19.458   0.930  1.00  0.00    -0.292 OA
BRANCH  23  25
ATOM     25  C   UNL     1      15.464 -18.927   2.696  1.00  0.00    +0.021 A 
ATOM     26  C   UNL     1      14.921 -17.850   1.988  1.00  0.00    +0.015 A 
ATOM     27  C   UNL     1      15.042 -19.231   3.993  1.00  0.00    +0.035 A 
ATOM     28  C   UNL     1      13.924 -17.077   2.584  1.00  0.00    +0.041 A 
ATOM     29  C   UNL     1      14.043 -18.453   4.577  1.00  0.00    +0.077 A 
ATOM     30  C   UNL     1      13.489 -17.383   3.871  1.00  0.00    +0.141 A 
ATOM     31 Cl   UNL     1      13.490 -18.838   6.161  1.00  0.00    -0.081 Cl
ATOM     32  F   UNL     1      12.520 -16.633   4.417  1.00  0.00    -0.205 F 
ENDBRANCH  23  25
ENDBRANCH  22  23
ENDBRANCH   6  22
TORSDOF 6
ENDMDL
MODEL 8
REMARK VINA RESULT:    -8.253      4.850      8.081
REMARK INTER + INTRA:         -12.123
REMARK INTER:                 -11.195
REMARK INTRA:                  -0.928
REMARK UNBOUND:                -1.216
REMARK SMILES CC1(c2ccc(S(N)(=O)=O)cc2)NC(=O)N(CC(=O)c2ccc(F)c(Cl)c2)C1=O
REMARK SMILES IDX 1 1 2 2 13 3 14 4 15 5 16 6 28 7 29 8 3 10 4 11 12 12 5 13
REMARK SMILES IDX 11 14 6 15 7 16 9 17 10 18 8 19 17 22 18 23 19 24 20 25
REMARK SMILES IDX 21 26 27 27 22 28 25 29 23 30 26 31 24 32
REMARK H PARENT 13 9 8 20 8 21
ROOT
ATOM      1  C   UNL     1      17.539 -23.209   4.603  1.00  0.00    +0.051 C 
ATOM      2  C   UNL     1      17.475 -22.192   3.463  1.00  0.00    +0.144 C 
ATOM      3  N   UNL     1      18.810 -21.712   3.166  1.00  0.00    -0.319 N 
ATOM      4  C   UNL     1      19.239 -22.055   1.910  1.00  0.00    +0.325 C 
ATOM      5  O   UNL     1      20.345 -21.797   1.471  1.00  0.00    -0.248 OA
ATOM      6  N   UNL     1      18.250 -22.745   1.285  1.00  0.00    -0.254 N 
ATOM      7  C   UNL     1      17.185 -22.919   2.125  1.00  0.00    +0.261 C 
ATOM      8  O   UNL     1      16.186 -23.578   1.863  1.00  0.00    -0.271 OA
ATOM      9  H   UNL     1      19.417 -21.227   3.813  1.00  0.00    +0.166 HD
ENDROOT
BRANCH   2  10
ATOM     10  C   UNL     1      16.476 -21.068   3.729  1.00  0.00    -0.013 A 
ATOM     11  C   UNL     1      16.394 -19.977   2.840  1.00  0.00    +0.008 A 
ATOM     12  C   UNL     1      15.611 -21.077   4.840  1.00  0.00    +0.008 A 
ATOM     13  C   UNL     1      15.487 -18.934   3.050  1.00  0.00    +0.022 A 
ATOM     14  C   UNL     1      14.700 -20.038   5.055  1.00  0.00    +0.022 A 
ATOM     15  C   UNL     1      14.650 -18.966   4.165  1.00  0.00    +0.082 A 
BRANCH  15  16
ATOM     16  S   UNL     1      13.476 -17.668   4.416  1.00  0.00    +0.238 S 
ATOM     17  O   UNL     1      12.438 -18.133   5.305  1.00  0.00    -0.207 OA
ATOM     18  O   UNL     1      13.187 -17.038   3.149  1.00  0.00    -0.207 OA
BRANCH  16  19
ATOM     19  N   UNL     1      14.374 -16.555   5.295  1.00  0.00    -0.225 NA
ATOM     20  H   UNL     1      15.053 -16.099   4.686  1.00  0.00    +0.137 HD
ATOM     21  H   UNL     1      13.748 -15.905   5.773  1.00  0.00    +0.137 HD
ENDBRANCH  16  19
ENDBRANCH  15  16
ENDBRANCH   2  10
BRANCH   6  22
ATOM     22  C   UNL     1      18.337 -23.272  -0.060  1.00  0.00    +0.211 C 
BRANCH  22  23
ATOM     23  C   UNL     1      18.395 -22.220  -1.161  1.00  0.00    +0.182 C 
ATOM     24  O   UNL     1      17.552 -21.333  -1.275  1.00  0.00    -0.292 OA
BRANCH  23  25
ATOM     25  C   UNL     1      19.496 -22.248  -2.137  1.00  0.00    +0.021 A 
ATOM     26  C   UNL     1      20.727 -22.802  -1.770  1.00  0.00    +0.015 A 
ATOM     27  C   UNL     1      19.293 -21.708  -3.410  1.00  0.00    +0.035 A 
ATOM     28  C   UNL     1      21.764 -22.834  -2.702  1.00  0.00    +0.041 A 
ATOM     29  C   UNL     1      20.336 -21.748  -4.334  1.00  0.00    +0.077 A 
ATOM     30  C   UNL     1      21.564 -22.310  -3.977  1.00  0.00    +0.141 A 
ATOM     31 Cl   UNL     1      20.088 -21.118  -5.916  1.00  0.00    -0.081 Cl
ATOM     32  F   UNL     1      22.572 -22.365  -4.859  1.00  0.00    -0.205 F 
ENDBRANCH  23  25
ENDBRANCH  22  23
ENDBRANCH   6  22
TORSDOF 6
ENDMDL
MODEL 9
REMARK VINA RESULT:    -8.204      3.184      4.921
REMARK INTER + INTRA:         -12.057
REMARK INTER:                 -11.428
REMARK INTRA:                  -0.629
REMARK UNBOUND:                -1.216
REMARK SMILES CC1(c2ccc(S(N)(=O)=O)cc2)NC(=O)N(CC(=O)c2ccc(F)c(Cl)c2)C1=O
REMARK SMILES IDX 1 1 2 2 13 3 14 4 15 5 16 6 28 7 29 8 3 10 4 11 12 12 5 13
REMARK SMILES IDX 11 14 6 15 7 16 9 17 10 18 8 19 17 22 18 23 19 24 20 25
REMARK SMILES IDX 21 26 27 27 22 28 25 29 23 30 26 31 24 32
REMARK H PARENT 13 9 8 20 8 21
ROOT
ATOM      1  C   UNL     1      15.769 -22.730  -0.633  1.00  0.00    +0.051 C 
ATOM      2  C   UNL     1      17.026 -21.906  -0.346  1.00  0.00    +0.144 C 
ATOM      3  N   UNL     1      16.644 -20.605   0.166  1.00  0.00    -0.319 N 
ATOM      4  C   UNL     1      17.052 -20.394   1.458  1.00  0.00    +0.325 C 
ATOM      5  O   UNL     1      16.797 -19.391   2.100  1.00  0.00    -0.248 OA
ATOM      6  N   UNL     1      17.732 -21.489   1.885  1.00  0.00    -0.254 N 
ATOM      7  C   UNL     1      17.737 -22.455   0.917  1.00  0.00    +0.261 C 
ATOM      8  O   UNL     1      18.200 -23.581   1.053  1.00  0.00    -0.271 OA
ATOM      9  H   UNL     1      16.083 -19.922  -0.324  1.00  0.00    +0.166 HD
ENDROOT
BRANCH   2  10
ATOM     10  C   UNL     1      17.969 -21.830  -1.544  1.00  0.00    -0.013 A 
ATOM     11  C   UNL     1      19.037 -22.744  -1.655  1.00  0.00    +0.008 A 
ATOM     12  C   UNL     1      17.813 -20.874  -2.566  1.00  0.00    +0.008 A 
ATOM     13  C   UNL     1      19.915 -22.707  -2.742  1.00  0.00    +0.022 A 
ATOM     14  C   UNL     1      18.688 -20.831  -3.655  1.00  0.00    +0.022 A 
ATOM     15  C   UNL     1      19.741 -21.742  -3.733  1.00  0.00    +0.082 A 
BRANCH  15  16
ATOM     16  S   UNL     1      20.829 -21.713  -5.127  1.00  0.00    +0.238 S 
ATOM     17  O   UNL     1      21.154 -23.070  -5.503  1.00  0.00    -0.207 OA
ATOM     18  O   UNL     1      21.839 -20.703  -4.920  1.00  0.00    -0.207 OA
BRANCH  16  19
ATOM     19  N   UNL     1      19.825 -21.127  -6.337  1.00  0.00    -0.225 NA
ATOM     20  H   UNL     1      19.414 -20.239  -6.047  1.00  0.00    +0.137 HD
ATOM     21  H   UNL     1      20.338 -21.074  -7.219  1.00  0.00    +0.137 HD
ENDBRANCH  16  19
ENDBRANCH  15  16
ENDBRANCH   2  10
BRANCH   6  22
ATOM     22  C   UNL     1      18.316 -21.634   3.201  1.00  0.00    +0.211 C 
BRANCH  22  23
ATOM     23  C   UNL     1      17.380 -22.204   4.261  1.00  0.00    +0.182 C 
ATOM     24  O   UNL     1      17.507 -23.339   4.716  1.00  0.00    -0.292 OA
BRANCH  23  25
ATOM     25  C   UNL     1      16.275 -21.380   4.775  1.00  0.00    +0.021 A 
ATOM     26  C   UNL     1      14.956 -21.812   4.604  1.00  0.00    +0.015 A 
ATOM     27  C   UNL     1      16.566 -20.171   5.415  1.00  0.00    +0.035 A 
ATOM     28  C   UNL     1      13.913 -21.031   5.101  1.00  0.00    +0.041 A 
ATOM     29  C   UNL     1      15.516 -19.400   5.910  1.00  0.00    +0.077 A 
ATOM     30  C   UNL     1      14.197 -19.833   5.752  1.00  0.00    +0.141 A 
ATOM     31 Cl   UNL     1      15.863 -17.928   6.730  1.00  0.00    -0.081 Cl
ATOM     32  F   UNL     1      13.178 -19.106   6.233  1.00  0.00    -0.205 F 
ENDBRANCH  23  25
ENDBRANCH  22  23
ENDBRANCH   6  22
TORSDOF 6
ENDMDL
