MODEL 1
REMARK VINA RESULT:    -9.181      0.000      0.000
REMARK INTER + INTRA:         -13.787
REMARK INTER:                 -12.669
REMARK INTRA:                  -1.117
REMARK UNBOUND:                -1.117
REMARK SMILES CC1(c2ccc(S(N)(=O)=O)cc2)NC(=O)N(CC(=O)c2ccc(F)c(C(F)(F)F)c2)C1=O
REMARK SMILES IDX 1 1 2 2 13 3 14 4 15 5 16 6 31 7 32 8 3 10 4 11 12 12 5 13
REMARK SMILES IDX 11 14 6 15 7 16 9 17 10 18 8 19 17 22 18 23 19 24 20 25
REMARK SMILES IDX 21 26 30 27 22 28 25 29 23 30 24 31 26 32 27 33 28 34 29 35
REMARK H PARENT 13 9 8 20 8 21
ROOT
ATOM      1  C   UNL     1      19.229 -22.547  -2.712  1.00  0.00    +0.051 C 
ATOM      2  C   UNL     1      18.807 -22.289  -1.263  1.00  0.00    +0.144 C 
ATOM      3  N   UNL     1      17.660 -23.116  -0.938  1.00  0.00    -0.319 N 
ATOM      4  C   UNL     1      16.505 -22.388  -0.797  1.00  0.00    +0.325 C 
ATOM      5  O   UNL     1      15.402 -22.880  -0.631  1.00  0.00    -0.248 OA
ATOM      6  N   UNL     1      16.810 -21.068  -0.881  1.00  0.00    -0.254 N 
ATOM      7  C   UNL     1      18.136 -20.896  -1.164  1.00  0.00    +0.261 C 
ATOM      8  O   UNL     1      18.687 -19.814  -1.337  1.00  0.00    -0.271 OA
ATOM      9  H   UNL     1      17.623 -24.122  -1.030  1.00  0.00    +0.166 HD
ENDROOT
BRANCH   2  10
ATOM     10  C   UNL     1      19.961 -22.453  -0.275  1.00  0.00    -0.013 A 
ATOM     11  C   UNL     1      21.215 -22.961  -0.663  1.00  0.00    +0.008 A 
ATOM     12  C   UNL     1      19.790 -22.081   1.073  1.00  0.00    +0.008 A 
ATOM     13  C   UNL     1      22.259 -23.092   0.259  1.00  0.00    +0.022 A 
ATOM     14  C   UNL     1      20.827 -22.211   2.000  1.00  0.00    +0.022 A 
ATOM     15  C   UNL     1      22.056 -22.726   1.589  1.00  0.00    +0.082 A 
BRANCH  15  16
ATOM     16  S   UNL     1      23.382 -22.859   2.751  1.00  0.00    +0.238 S 
ATOM     17  O   UNL     1      24.092 -21.603   2.808  1.00  0.00    -0.207 OA
ATOM     18  O   UNL     1      24.056 -24.123   2.561  1.00  0.00    -0.207 OA
BRANCH  16  19
ATOM     19  N   UNL     1      22.557 -22.992   4.206  1.00  0.00    -0.225 NA
ATOM     20  H   UNL     1      23.022 -23.674   4.806  1.00  0.00    +0.137 HD
ATOM     21  H   UNL     1      21.575 -23.205   4.028  1.00  0.00    +0.137 HD
ENDBRANCH  16  19
ENDBRANCH  15  16
ENDBRANCH   2  10
BRANCH   6  22
ATOM     22  C   UNL     1      15.831 -20.007  -0.868  1.00  0.00    +0.211 C 
BRANCH  22  23
ATOM     23  C   UNL     1      16.200 -19.001   0.219  1.00  0.00    +0.182 C 
ATOM     24  O   UNL     1      16.653 -17.884  -0.031  1.00  0.00    -0.292 OA
BRANCH  23  25
ATOM     25  C   UNL     1      16.016 -19.398   1.649  1.00  0.00    +0.020 A 
ATOM     26  C   UNL     1      16.721 -20.459   2.232  1.00  0.00    +0.015 A 
ATOM     27  C   UNL     1      15.102 -18.669   2.431  1.00  0.00    +0.028 A 
ATOM     28  C   UNL     1      16.508 -20.784   3.575  1.00  0.00    +0.040 A 
ATOM     29  C   UNL     1      14.886 -18.993   3.781  1.00  0.00    +0.092 A 
ATOM     30  C   UNL     1      15.597 -20.052   4.334  1.00  0.00    +0.135 A 
ATOM     31  F   UNL     1      15.415 -20.387   5.616  1.00  0.00    -0.206 F 
BRANCH  29  32
ATOM     32  C   UNL     1      13.919 -18.235   4.639  1.00  0.00    +0.419 C 
ATOM     33  F   UNL     1      13.265 -17.246   3.964  1.00  0.00    -0.166 F 
ATOM     34  F   UNL     1      12.942 -19.026   5.161  1.00  0.00    -0.166 F 
ATOM     35  F   UNL     1      14.518 -17.620   5.695  1.00  0.00    -0.166 F 
ENDBRANCH  29  32
ENDBRANCH  23  25
ENDBRANCH  22  23
ENDBRANCH   6  22
TORSDOF 7
ENDMDL
MODEL 2
REMARK VINA RESULT:    -9.174      3.771      6.229
REMARK INTER + INTRA:         -13.778
REMARK INTER:                 -11.549
REMARK INTRA:                  -2.229
REMARK UNBOUND:                -1.117
REMARK SMILES CC1(c2ccc(S(N)(=O)=O)cc2)NC(=O)N(CC(=O)c2ccc(F)c(C(F)(F)F)c2)C1=O
REMARK SMILES IDX 1 1 2 2 13 3 14 4 15 5 16 6 31 7 32 8 3 10 4 11 12 12 5 13
REMARK SMILES IDX 11 14 6 15 7 16 9 17 10 18 8 19 17 22 18 23 19 24 20 25
REMARK SMILES IDX 21 26 30 27 22 28 25 29 23 30 24 31 26 32 27 33 28 34 29 35
REMARK H PARENT 13 9 8 20 8 21
ROOT
ATOM      1  C   UNL     1      19.168 -24.206   4.300  1.00  0.00    +0.051 C 
ATOM      2  C   UNL     1      18.344 -23.559   3.183  1.00  0.00    +0.144 C 
ATOM      3  N   UNL     1      17.598 -24.583   2.476  1.00  0.00    -0.319 N 
ATOM      4  C   UNL     1      18.074 -24.805   1.208  1.00  0.00    +0.325 C 
ATOM      5  O   UNL     1      17.673 -25.690   0.472  1.00  0.00    -0.248 OA
ATOM      6  N   UNL     1      19.043 -23.893   0.941  1.00  0.00    -0.254 N 
ATOM      7  C   UNL     1      19.289 -23.115   2.038  1.00  0.00    +0.261 C 
ATOM      8  O   UNL     1      20.140 -22.235   2.102  1.00  0.00    -0.271 OA
ATOM      9  H   UNL     1      16.960 -25.238   2.905  1.00  0.00    +0.166 HD
ENDROOT
BRANCH   2  10
ATOM     10  C   UNL     1      17.463 -22.418   3.687  1.00  0.00    -0.013 A 
ATOM     11  C   UNL     1      16.988 -21.403   2.835  1.00  0.00    +0.008 A 
ATOM     12  C   UNL     1      17.091 -22.364   5.046  1.00  0.00    +0.008 A 
ATOM     13  C   UNL     1      16.174 -20.373   3.319  1.00  0.00    +0.022 A 
ATOM     14  C   UNL     1      16.279 -21.338   5.537  1.00  0.00    +0.022 A 
ATOM     15  C   UNL     1      15.832 -20.341   4.671  1.00  0.00    +0.082 A 
BRANCH  15  16
ATOM     16  S   UNL     1      14.776 -19.061   5.281  1.00  0.00    +0.238 S 
ATOM     17  O   UNL     1      15.490 -18.283   6.265  1.00  0.00    -0.207 OA
ATOM     18  O   UNL     1      13.461 -19.606   5.528  1.00  0.00    -0.207 OA
BRANCH  16  19
ATOM     19  N   UNL     1      14.617 -18.072   3.933  1.00  0.00    -0.225 NA
ATOM     20  H   UNL     1      13.891 -17.375   4.100  1.00  0.00    +0.137 HD
ATOM     21  H   UNL     1      14.456 -18.643   3.103  1.00  0.00    +0.137 HD
ENDBRANCH  16  19
ENDBRANCH  15  16
ENDBRANCH   2  10
BRANCH   6  22
ATOM     22  C   UNL     1      19.834 -23.879  -0.267  1.00  0.00    +0.211 C 
BRANCH  22  23
ATOM     23  C   UNL     1      19.569 -22.578  -1.021  1.00  0.00    +0.182 C 
ATOM     24  O   UNL     1      20.470 -21.885  -1.492  1.00  0.00    -0.292 OA
BRANCH  23  25
ATOM     25  C   UNL     1      18.154 -22.123  -1.182  1.00  0.00    +0.020 A 
ATOM     26  C   UNL     1      17.181 -22.901  -1.823  1.00  0.00    +0.015 A 
ATOM     27  C   UNL     1      17.794 -20.867  -0.660  1.00  0.00    +0.028 A 
ATOM     28  C   UNL     1      15.873 -22.424  -1.942  1.00  0.00    +0.040 A 
ATOM     29  C   UNL     1      16.479 -20.386  -0.777  1.00  0.00    +0.092 A 
ATOM     30  C   UNL     1      15.535 -21.177  -1.422  1.00  0.00    +0.135 A 
ATOM     31  F   UNL     1      14.274 -20.748  -1.550  1.00  0.00    -0.206 F 
BRANCH  29  32
ATOM     32  C   UNL     1      16.066 -19.052  -0.232  1.00  0.00    +0.419 C 
ATOM     33  F   UNL     1      14.998 -19.127   0.614  1.00  0.00    -0.166 F 
ATOM     34  F   UNL     1      17.053 -18.443   0.481  1.00  0.00    -0.166 F 
ATOM     35  F   UNL     1      15.699 -18.174  -1.205  1.00  0.00    -0.166 F 
ENDBRANCH  29  32
ENDBRANCH  23  25
ENDBRANCH  22  23
ENDBRANCH   6  22
TORSDOF 7
ENDMDL
MODEL 3
REMARK VINA RESULT:    -9.121      2.904      4.560
REMARK INTER + INTRA:         -13.705
REMARK INTER:                 -12.755
REMARK INTRA:                  -0.950
REMARK UNBOUND:                -1.117
REMARK SMILES CC1(c2ccc(S(N)(=O)=O)cc2)NC(=O)N(CC(=O)c2ccc(F)c(C(F)(F)F)c2)C1=O
REMARK SMILES IDX 1 1 2 2 13 3 14 4 15 5 16 6 31 7 32 8 3 10 4 11 12 12 5 13
REMARK SMILES IDX 11 14 6 15 7 16 9 17 10 18 8 19 17 22 18 23 19 24 20 25
REMARK SMILES IDX 21 26 30 27 22 28 25 29 23 30 24 31 26 32 27 33 28 34 29 35
REMARK H PARENT 13 9 8 20 8 21
ROOT
ATOM      1  C   UNL     1      19.272 -25.474   0.496  1.00  0.00    +0.051 C 
ATOM      2  C   UNL     1      19.131 -23.950   0.457  1.00  0.00    +0.144 C 
ATOM      3  N   UNL     1      19.842 -23.369   1.580  1.00  0.00    -0.319 N 
ATOM      4  C   UNL     1      18.999 -22.846   2.528  1.00  0.00    +0.325 C 
ATOM      5  O   UNL     1      19.367 -22.404   3.602  1.00  0.00    -0.248 OA
ATOM      6  N   UNL     1      17.725 -22.916   2.063  1.00  0.00    -0.254 N 
ATOM      7  C   UNL     1      17.687 -23.557   0.857  1.00  0.00    +0.261 C 
ATOM      8  O   UNL     1      16.668 -23.801   0.219  1.00  0.00    -0.271 OA
ATOM      9  H   UNL     1      20.819 -23.521   1.792  1.00  0.00    +0.166 HD
ENDROOT
BRANCH   2  10
ATOM     10  C   UNL     1      19.547 -23.354  -0.887  1.00  0.00    -0.013 A 
ATOM     11  C   UNL     1      19.083 -22.101  -1.329  1.00  0.00    +0.008 A 
ATOM     12  C   UNL     1      20.433 -24.060  -1.725  1.00  0.00    +0.008 A 
ATOM     13  C   UNL     1      19.486 -21.572  -2.559  1.00  0.00    +0.022 A 
ATOM     14  C   UNL     1      20.839 -23.539  -2.956  1.00  0.00    +0.022 A 
ATOM     15  C   UNL     1      20.355 -22.300  -3.372  1.00  0.00    +0.082 A 
BRANCH  15  16
ATOM     16  S   UNL     1      20.894 -21.620  -4.913  1.00  0.00    +0.238 S 
ATOM     17  O   UNL     1      21.147 -22.694  -5.844  1.00  0.00    -0.207 OA
ATOM     18  O   UNL     1      21.853 -20.570  -4.660  1.00  0.00    -0.207 OA
BRANCH  16  19
ATOM     19  N   UNL     1      19.504 -20.852  -5.457  1.00  0.00    -0.225 NA
ATOM     20  H   UNL     1      19.744 -19.941  -5.849  1.00  0.00    +0.137 HD
ATOM     21  H   UNL     1      18.816 -20.807  -4.704  1.00  0.00    +0.137 HD
ENDBRANCH  16  19
ENDBRANCH  15  16
ENDBRANCH   2  10
BRANCH   6  22
ATOM     22  C   UNL     1      16.560 -22.541   2.829  1.00  0.00    +0.211 C 
BRANCH  22  23
ATOM     23  C   UNL     1      16.448 -21.019   2.854  1.00  0.00    +0.182 C 
ATOM     24  O   UNL     1      17.089 -20.291   2.095  1.00  0.00    -0.292 OA
BRANCH  23  25
ATOM     25  C   UNL     1      15.531 -20.388   3.851  1.00  0.00    +0.020 A 
ATOM     26  C   UNL     1      15.162 -21.026   5.043  1.00  0.00    +0.015 A 
ATOM     27  C   UNL     1      15.029 -19.103   3.577  1.00  0.00    +0.028 A 
ATOM     28  C   UNL     1      14.302 -20.386   5.939  1.00  0.00    +0.040 A 
ATOM     29  C   UNL     1      14.165 -18.457   4.476  1.00  0.00    +0.092 A 
ATOM     30  C   UNL     1      13.813 -19.114   5.650  1.00  0.00    +0.135 A 
ATOM     31  F   UNL     1      12.991 -18.527   6.528  1.00  0.00    -0.206 F 
BRANCH  29  32
ATOM     32  C   UNL     1      13.614 -17.088   4.211  1.00  0.00    +0.419 C 
ATOM     33  F   UNL     1      14.021 -16.161   5.125  1.00  0.00    -0.166 F 
ATOM     34  F   UNL     1      13.988 -16.593   2.999  1.00  0.00    -0.166 F 
ATOM     35  F   UNL     1      12.254 -17.052   4.235  1.00  0.00    -0.166 F 
ENDBRANCH  29  32
ENDBRANCH  23  25
ENDBRANCH  22  23
ENDBRANCH   6  22
TORSDOF 7
ENDMDL
MODEL 4
REMARK VINA RESULT:    -9.034      0.877      2.017
REMARK INTER + INTRA:         -13.584
REMARK INTER:                 -12.330
REMARK INTRA:                  -1.254
REMARK UNBOUND:                -1.117
REMARK SMILES CC1(c2ccc(S(N)(=O)=O)cc2)NC(=O)N(CC(=O)c2ccc(F)c(C(F)(F)F)c2)C1=O
REMARK SMILES IDX 1 1 2 2 13 3 14 4 15 5 16 6 31 7 32 8 3 10 4 11 12 12 5 13
REMARK SMILES IDX 11 14 6 15 7 16 9 17 10 18 8 19 17 22 18 23 19 24 20 25
REMARK SMILES IDX 21 26 30 27 22 28 25 29 23 30 24 31 26 32 27 33 28 34 29 35
REMARK H PARENT 13 9 8 20 8 21
ROOT
ATOM      1  C   UNL     1      19.220 -22.593  -2.694  1.00  0.00    +0.051 C 
ATOM      2  C   UNL     1      18.789 -22.289  -1.256  1.00  0.00    +0.144 C 
ATOM      3  N   UNL     1      17.615 -23.076  -0.927  1.00  0.00    -0.319 N 
ATOM      4  C   UNL     1      16.480 -22.313  -0.817  1.00  0.00    +0.325 C 
ATOM      5  O   UNL     1      15.362 -22.770  -0.653  1.00  0.00    -0.248 OA
ATOM      6  N   UNL     1      16.822 -21.005  -0.927  1.00  0.00    -0.254 N 
ATOM      7  C   UNL     1      18.156 -20.876  -1.197  1.00  0.00    +0.261 C 
ATOM      8  O   UNL     1      18.738 -19.814  -1.388  1.00  0.00    -0.271 OA
ATOM      9  H   UNL     1      17.551 -24.082  -0.996  1.00  0.00    +0.166 HD
ENDROOT
BRANCH   2  10
ATOM     10  C   UNL     1      19.926 -22.462  -0.251  1.00  0.00    -0.013 A 
ATOM     11  C   UNL     1      21.159 -23.042  -0.603  1.00  0.00    +0.008 A 
ATOM     12  C   UNL     1      19.761 -22.024   1.079  1.00  0.00    +0.008 A 
ATOM     13  C   UNL     1      22.188 -23.181   0.334  1.00  0.00    +0.022 A 
ATOM     14  C   UNL     1      20.784 -22.160   2.021  1.00  0.00    +0.022 A 
ATOM     15  C   UNL     1      21.991 -22.748   1.645  1.00  0.00    +0.082 A 
BRANCH  15  16
ATOM     16  S   UNL     1      23.300 -22.890   2.824  1.00  0.00    +0.238 S 
ATOM     17  O   UNL     1      24.020 -21.640   2.889  1.00  0.00    -0.207 OA
ATOM     18  O   UNL     1      23.966 -24.160   2.646  1.00  0.00    -0.207 OA
BRANCH  16  19
ATOM     19  N   UNL     1      22.454 -23.014   4.269  1.00  0.00    -0.225 NA
ATOM     20  H   UNL     1      23.103 -23.195   5.035  1.00  0.00    +0.137 HD
ATOM     21  H   UNL     1      21.718 -23.716   4.179  1.00  0.00    +0.137 HD
ENDBRANCH  16  19
ENDBRANCH  15  16
ENDBRANCH   2  10
BRANCH   6  22
ATOM     22  C   UNL     1      15.873 -19.917  -0.951  1.00  0.00    +0.211 C 
BRANCH  22  23
ATOM     23  C   UNL     1      16.286 -18.873   0.084  1.00  0.00    +0.182 C 
ATOM     24  O   UNL     1      16.967 -17.887  -0.199  1.00  0.00    -0.292 OA
BRANCH  23  25
ATOM     25  C   UNL     1      15.855 -19.066   1.502  1.00  0.00    +0.020 A 
ATOM     26  C   UNL     1      14.853 -18.288   2.097  1.00  0.00    +0.015 A 
ATOM     27  C   UNL     1      16.481 -20.074   2.258  1.00  0.00    +0.028 A 
ATOM     28  C   UNL     1      14.491 -18.515   3.427  1.00  0.00    +0.040 A 
ATOM     29  C   UNL     1      16.118 -20.305   3.595  1.00  0.00    +0.092 A 
ATOM     30  C   UNL     1      15.122 -19.516   4.161  1.00  0.00    +0.135 A 
ATOM     31  F   UNL     1      14.753 -19.710   5.432  1.00  0.00    -0.206 F 
BRANCH  29  32
ATOM     32  C   UNL     1      16.767 -21.371   4.426  1.00  0.00    +0.419 C 
ATOM     33  F   UNL     1      17.257 -20.903   5.609  1.00  0.00    -0.166 F 
ATOM     34  F   UNL     1      15.911 -22.376   4.759  1.00  0.00    -0.166 F 
ATOM     35  F   UNL     1      17.823 -21.959   3.800  1.00  0.00    -0.166 F 
ENDBRANCH  29  32
ENDBRANCH  23  25
ENDBRANCH  22  23
ENDBRANCH   6  22
TORSDOF 7
ENDMDL
MODEL 5
REMARK VINA RESULT:    -8.939      2.897      3.710
REMARK INTER + INTRA:         -13.453
REMARK INTER:                 -12.226
REMARK INTRA:                  -1.227
REMARK UNBOUND:                -1.117
REMARK SMILES CC1(c2ccc(S(N)(=O)=O)cc2)NC(=O)N(CC(=O)c2ccc(F)c(C(F)(F)F)c2)C1=O
REMARK SMILES IDX 1 1 2 2 13 3 14 4 15 5 16 6 31 7 32 8 3 10 4 11 12 12 5 13
REMARK SMILES IDX 11 14 6 15 7 16 9 17 10 18 8 19 17 22 18 23 19 24 20 25
REMARK SMILES IDX 21 26 30 27 22 28 25 29 23 30 24 31 26 32 27 33 28 34 29 35
REMARK H PARENT 13 9 8 20 8 21
ROOT
ATOM      1  C   UNL     1      16.627 -21.986  -2.451  1.00  0.00    +0.051 C 
ATOM      2  C   UNL     1      17.819 -22.147  -1.504  1.00  0.00    +0.144 C 
ATOM      3  N   UNL     1      17.435 -22.981  -0.380  1.00  0.00    -0.319 N 
ATOM      4  C   UNL     1      17.335 -22.277   0.793  1.00  0.00    +0.325 C 
ATOM      5  O   UNL     1      16.925 -22.747   1.841  1.00  0.00    -0.248 OA
ATOM      6  N   UNL     1      17.756 -21.005   0.575  1.00  0.00    -0.254 N 
ATOM      7  C   UNL     1      18.056 -20.816  -0.745  1.00  0.00    +0.261 C 
ATOM      8  O   UNL     1      18.423 -19.756  -1.241  1.00  0.00    -0.271 OA
ATOM      9  H   UNL     1      17.050 -23.913  -0.453  1.00  0.00    +0.166 HD
ENDROOT
BRANCH   2  10
ATOM     10  C   UNL     1      19.076 -22.644  -2.216  1.00  0.00    -0.013 A 
ATOM     11  C   UNL     1      19.378 -22.287  -3.543  1.00  0.00    +0.008 A 
ATOM     12  C   UNL     1      19.983 -23.482  -1.537  1.00  0.00    +0.008 A 
ATOM     13  C   UNL     1      20.540 -22.748  -4.170  1.00  0.00    +0.022 A 
ATOM     14  C   UNL     1      21.145 -23.948  -2.157  1.00  0.00    +0.022 A 
ATOM     15  C   UNL     1      21.413 -23.585  -3.476  1.00  0.00    +0.082 A 
BRANCH  15  16
ATOM     16  S   UNL     1      22.900 -24.143  -4.253  1.00  0.00    +0.238 S 
ATOM     17  O   UNL     1      22.892 -25.586  -4.317  1.00  0.00    -0.207 OA
ATOM     18  O   UNL     1      24.020 -23.396  -3.730  1.00  0.00    -0.207 OA
BRANCH  16  19
ATOM     19  N   UNL     1      22.688 -23.609  -5.830  1.00  0.00    -0.225 NA
ATOM     20  H   UNL     1      22.614 -24.409  -6.459  1.00  0.00    +0.137 HD
ATOM     21  H   UNL     1      23.435 -22.959  -6.078  1.00  0.00    +0.137 HD
ENDBRANCH  16  19
ENDBRANCH  15  16
ENDBRANCH   2  10
BRANCH   6  22
ATOM     22  C   UNL     1      17.705 -19.953   1.562  1.00  0.00    +0.211 C 
BRANCH  22  23
ATOM     23  C   UNL     1      16.300 -19.358   1.585  1.00  0.00    +0.182 C 
ATOM     24  O   UNL     1      15.745 -18.921   0.576  1.00  0.00    -0.292 OA
BRANCH  23  25
ATOM     25  C   UNL     1      15.574 -19.293   2.890  1.00  0.00    +0.020 A 
ATOM     26  C   UNL     1      15.851 -20.167   3.949  1.00  0.00    +0.015 A 
ATOM     27  C   UNL     1      14.582 -18.309   3.054  1.00  0.00    +0.028 A 
ATOM     28  C   UNL     1      15.141 -20.057   5.148  1.00  0.00    +0.040 A 
ATOM     29  C   UNL     1      13.868 -18.196   4.258  1.00  0.00    +0.092 A 
ATOM     30  C   UNL     1      14.161 -19.079   5.292  1.00  0.00    +0.135 A 
ATOM     31  F   UNL     1      13.499 -18.998   6.451  1.00  0.00    -0.206 F 
BRANCH  29  32
ATOM     32  C   UNL     1      12.805 -17.158   4.461  1.00  0.00    +0.419 C 
ATOM     33  F   UNL     1      11.588 -17.691   4.768  1.00  0.00    -0.166 F 
ATOM     34  F   UNL     1      13.093 -16.299   5.477  1.00  0.00    -0.166 F 
ATOM     35  F   UNL     1      12.599 -16.389   3.358  1.00  0.00    -0.166 F 
ENDBRANCH  29  32
ENDBRANCH  23  25
ENDBRANCH  22  23
ENDBRANCH   6  22
TORSDOF 7
ENDMDL
MODEL 6
REMARK VINA RESULT:    -8.886      3.014      4.122
REMARK INTER + INTRA:         -13.380
REMARK INTER:                 -12.160
REMARK INTRA:                  -1.220
REMARK UNBOUND:                -1.117
REMARK SMILES CC1(c2ccc(S(N)(=O)=O)cc2)NC(=O)N(CC(=O)c2ccc(F)c(C(F)(F)F)c2)C1=O
REMARK SMILES IDX 1 1 2 2 13 3 14 4 15 5 16 6 31 7 32 8 3 10 4 11 12 12 5 13
REMARK SMILES IDX 11 14 6 15 7 16 9 17 10 18 8 19 17 22 18 23 19 24 20 25
REMARK SMILES IDX 21 26 30 27 22 28 25 29 23 30 24 31 26 32 27 33 28 34 29 35
REMARK H PARENT 13 9 8 20 8 21
ROOT
ATOM      1  C   UNL     1      16.558 -21.646  -2.588  1.00  0.00    +0.051 C 
ATOM      2  C   UNL     1      17.790 -21.780  -1.688  1.00  0.00    +0.144 C 
ATOM      3  N   UNL     1      17.498 -22.694  -0.600  1.00  0.00    -0.319 N 
ATOM      4  C   UNL     1      17.395 -22.059   0.612  1.00  0.00    +0.325 C 
ATOM      5  O   UNL     1      17.052 -22.608   1.645  1.00  0.00    -0.248 OA
ATOM      6  N   UNL     1      17.730 -20.754   0.450  1.00  0.00    -0.254 N 
ATOM      7  C   UNL     1      17.971 -20.478  -0.867  1.00  0.00    +0.261 C 
ATOM      8  O   UNL     1      18.255 -19.373  -1.317  1.00  0.00    -0.271 OA
ATOM      9  H   UNL     1      17.169 -23.643  -0.711  1.00  0.00    +0.166 HD
ENDROOT
BRANCH   2  10
ATOM     10  C   UNL     1      19.049 -22.159  -2.465  1.00  0.00    -0.013 A 
ATOM     11  C   UNL     1      19.337 -21.627  -3.737  1.00  0.00    +0.008 A 
ATOM     12  C   UNL     1      19.975 -23.063  -1.907  1.00  0.00    +0.008 A 
ATOM     13  C   UNL     1      20.501 -21.983  -4.425  1.00  0.00    +0.022 A 
ATOM     14  C   UNL     1      21.140 -23.425  -2.588  1.00  0.00    +0.022 A 
ATOM     15  C   UNL     1      21.393 -22.889  -3.850  1.00  0.00    +0.082 A 
BRANCH  15  16
ATOM     16  S   UNL     1      22.883 -23.316  -4.701  1.00  0.00    +0.238 S 
ATOM     17  O   UNL     1      24.015 -23.020  -3.855  1.00  0.00    -0.207 OA
ATOM     18  O   UNL     1      22.796 -22.861  -6.069  1.00  0.00    -0.207 OA
BRANCH  16  19
ATOM     19  N   UNL     1      22.777 -24.990  -4.765  1.00  0.00    -0.225 NA
ATOM     20  H   UNL     1      22.902 -25.307  -5.726  1.00  0.00    +0.137 HD
ATOM     21  H   UNL     1      21.901 -25.298  -4.341  1.00  0.00    +0.137 HD
ENDBRANCH  16  19
ENDBRANCH  15  16
ENDBRANCH   2  10
BRANCH   6  22
ATOM     22  C   UNL     1      17.649 -19.759   1.493  1.00  0.00    +0.211 C 
BRANCH  22  23
ATOM     23  C   UNL     1      16.221 -19.223   1.561  1.00  0.00    +0.182 C 
ATOM     24  O   UNL     1      15.628 -18.781   0.578  1.00  0.00    -0.292 OA
BRANCH  23  25
ATOM     25  C   UNL     1      15.522 -19.225   2.883  1.00  0.00    +0.020 A 
ATOM     26  C   UNL     1      14.530 -18.291   3.210  1.00  0.00    +0.015 A 
ATOM     27  C   UNL     1      15.876 -20.209   3.823  1.00  0.00    +0.028 A 
ATOM     28  C   UNL     1      13.910 -18.342   4.461  1.00  0.00    +0.040 A 
ATOM     29  C   UNL     1      15.253 -20.263   5.081  1.00  0.00    +0.092 A 
ATOM     30  C   UNL     1      14.274 -19.322   5.381  1.00  0.00    +0.135 A 
ATOM     31  F   UNL     1      13.661 -19.346   6.571  1.00  0.00    -0.206 F 
BRANCH  29  32
ATOM     32  C   UNL     1      15.609 -21.300   6.104  1.00  0.00    +0.419 C 
ATOM     33  F   UNL     1      16.511 -22.215   5.647  1.00  0.00    -0.166 F 
ATOM     34  F   UNL     1      16.167 -20.766   7.226  1.00  0.00    -0.166 F 
ATOM     35  F   UNL     1      14.534 -22.024   6.520  1.00  0.00    -0.166 F 
ENDBRANCH  29  32
ENDBRANCH  23  25
ENDBRANCH  22  23
ENDBRANCH   6  22
TORSDOF 7
ENDMDL
MODEL 7
REMARK VINA RESULT:    -8.845      3.646      6.610
REMARK INTER + INTRA:         -13.324
REMARK INTER:                 -11.344
REMARK INTRA:                  -1.980
REMARK UNBOUND:                -1.117
REMARK SMILES CC1(c2ccc(S(N)(=O)=O)cc2)NC(=O)N(CC(=O)c2ccc(F)c(C(F)(F)F)c2)C1=O
REMARK SMILES IDX 1 1 2 2 13 3 14 4 15 5 16 6 31 7 32 8 3 10 4 11 12 12 5 13
REMARK SMILES IDX 11 14 6 15 7 16 9 17 10 18 8 19 17 22 18 23 19 24 20 25
REMARK SMILES IDX 21 26 30 27 22 28 25 29 23 30 24 31 26 32 27 33 28 34 29 35
REMARK H PARENT 13 9 8 20 8 21
ROOT
ATOM      1  C   UNL     1      16.705 -18.198  -1.039  1.00  0.00    +0.051 C 
ATOM      2  C   UNL     1      16.642 -19.216   0.103  1.00  0.00    +0.144 C 
ATOM      3  N   UNL     1      17.989 -19.590   0.493  1.00  0.00    -0.319 N 
ATOM      4  C   UNL     1      18.307 -20.875   0.134  1.00  0.00    +0.325 C 
ATOM      5  O   UNL     1      19.415 -21.368   0.264  1.00  0.00    -0.248 OA
ATOM      6  N   UNL     1      17.200 -21.471  -0.378  1.00  0.00    -0.254 N 
ATOM      7  C   UNL     1      16.165 -20.582  -0.452  1.00  0.00    +0.261 C 
ATOM      8  O   UNL     1      15.054 -20.828  -0.911  1.00  0.00    -0.271 OA
ATOM      9  H   UNL     1      18.712 -18.944   0.778  1.00  0.00    +0.166 HD
ENDROOT
BRANCH   2  10
ATOM     10  C   UNL     1      15.792 -18.734   1.276  1.00  0.00    -0.013 A 
ATOM     11  C   UNL     1      15.751 -19.418   2.505  1.00  0.00    +0.008 A 
ATOM     12  C   UNL     1      15.022 -17.559   1.151  1.00  0.00    +0.008 A 
ATOM     13  C   UNL     1      14.971 -18.951   3.569  1.00  0.00    +0.022 A 
ATOM     14  C   UNL     1      14.240 -17.088   2.209  1.00  0.00    +0.022 A 
ATOM     15  C   UNL     1      14.211 -17.792   3.411  1.00  0.00    +0.082 A 
BRANCH  15  16
ATOM     16  S   UNL     1      13.251 -17.179   4.763  1.00  0.00    +0.238 S 
ATOM     17  O   UNL     1      13.249 -18.157   5.826  1.00  0.00    -0.207 OA
ATOM     18  O   UNL     1      12.038 -16.584   4.254  1.00  0.00    -0.207 OA
BRANCH  16  19
ATOM     19  N   UNL     1      14.196 -15.903   5.308  1.00  0.00    -0.225 NA
ATOM     20  H   UNL     1      14.946 -16.258   5.902  1.00  0.00    +0.137 HD
ATOM     21  H   UNL     1      13.606 -15.207   5.764  1.00  0.00    +0.137 HD
ENDBRANCH  16  19
ENDBRANCH  15  16
ENDBRANCH   2  10
BRANCH   6  22
ATOM     22  C   UNL     1      17.182 -22.798  -0.945  1.00  0.00    +0.211 C 
BRANCH  22  23
ATOM     23  C   UNL     1      16.671 -23.782   0.105  1.00  0.00    +0.182 C 
ATOM     24  O   UNL     1      15.758 -24.577  -0.116  1.00  0.00    -0.292 OA
BRANCH  23  25
ATOM     25  C   UNL     1      17.299 -23.766   1.461  1.00  0.00    +0.020 A 
ATOM     26  C   UNL     1      18.507 -24.419   1.739  1.00  0.00    +0.015 A 
ATOM     27  C   UNL     1      16.648 -23.061   2.490  1.00  0.00    +0.028 A 
ATOM     28  C   UNL     1      19.047 -24.368   3.026  1.00  0.00    +0.040 A 
ATOM     29  C   UNL     1      17.189 -23.007   3.785  1.00  0.00    +0.092 A 
ATOM     30  C   UNL     1      18.388 -23.667   4.033  1.00  0.00    +0.135 A 
ATOM     31  F   UNL     1      18.931 -23.636   5.256  1.00  0.00    -0.206 F 
BRANCH  29  32
ATOM     32  C   UNL     1      16.518 -22.265   4.901  1.00  0.00    +0.419 C 
ATOM     33  F   UNL     1      15.231 -21.916   4.614  1.00  0.00    -0.166 F 
ATOM     34  F   UNL     1      16.452 -22.987   6.053  1.00  0.00    -0.166 F 
ATOM     35  F   UNL     1      17.150 -21.101   5.216  1.00  0.00    -0.166 F 
ENDBRANCH  29  32
ENDBRANCH  23  25
ENDBRANCH  22  23
ENDBRANCH   6  22
TORSDOF 7
ENDMDL
MODEL 8
REMARK VINA RESULT:    -8.740      5.759      8.600
REMARK INTER + INTRA:         -13.179
REMARK INTER:                 -12.310
REMARK INTRA:                  -0.868
REMARK UNBOUND:                -1.117
REMARK SMILES CC1(c2ccc(S(N)(=O)=O)cc2)NC(=O)N(CC(=O)c2ccc(F)c(C(F)(F)F)c2)C1=O
REMARK SMILES IDX 1 1 2 2 13 3 14 4 15 5 16 6 31 7 32 8 3 10 4 11 12 12 5 13
REMARK SMILES IDX 11 14 6 15 7 16 9 17 10 18 8 19 17 22 18 23 19 24 20 25
REMARK SMILES IDX 21 26 30 27 22 28 25 29 23 30 24 31 26 32 27 33 28 34 29 35
REMARK H PARENT 13 9 8 20 8 21
ROOT
ATOM      1  C   UNL     1      17.996 -23.681   3.509  1.00  0.00    +0.051 C 
ATOM      2  C   UNL     1      17.174 -22.710   2.657  1.00  0.00    +0.144 C 
ATOM      3  N   UNL     1      16.257 -23.459   1.817  1.00  0.00    -0.319 N 
ATOM      4  C   UNL     1      16.605 -23.423   0.490  1.00  0.00    +0.325 C 
ATOM      5  O   UNL     1      16.044 -24.065  -0.381  1.00  0.00    -0.248 OA
ATOM      6  N   UNL     1      17.654 -22.576   0.337  1.00  0.00    -0.254 N 
ATOM      7  C   UNL     1      18.076 -22.107   1.550  1.00  0.00    +0.261 C 
ATOM      8  O   UNL     1      19.030 -21.357   1.724  1.00  0.00    -0.271 OA
ATOM      9  H   UNL     1      15.579 -24.129   2.151  1.00  0.00    +0.166 HD
ENDROOT
BRANCH   2  10
ATOM     10  C   UNL     1      16.479 -21.637   3.492  1.00  0.00    -0.013 A 
ATOM     11  C   UNL     1      16.007 -21.886   4.794  1.00  0.00    +0.008 A 
ATOM     12  C   UNL     1      16.301 -20.341   2.965  1.00  0.00    +0.008 A 
ATOM     13  C   UNL     1      15.382 -20.884   5.543  1.00  0.00    +0.022 A 
ATOM     14  C   UNL     1      15.676 -19.335   3.706  1.00  0.00    +0.022 A 
ATOM     15  C   UNL     1      15.210 -19.615   4.989  1.00  0.00    +0.082 A 
BRANCH  15  16
ATOM     16  S   UNL     1      14.451 -18.335   5.944  1.00  0.00    +0.238 S 
ATOM     17  O   UNL     1      15.388 -17.860   6.935  1.00  0.00    -0.207 OA
ATOM     18  O   UNL     1      13.101 -18.728   6.278  1.00  0.00    -0.207 OA
BRANCH  16  19
ATOM     19  N   UNL     1      14.304 -17.101   4.815  1.00  0.00    -0.225 NA
ATOM     20  H   UNL     1      14.206 -16.206   5.294  1.00  0.00    +0.137 HD
ATOM     21  H   UNL     1      13.539 -17.310   4.173  1.00  0.00    +0.137 HD
ENDBRANCH  16  19
ENDBRANCH  15  16
ENDBRANCH   2  10
BRANCH   6  22
ATOM     22  C   UNL     1      18.346 -22.358  -0.911  1.00  0.00    +0.211 C 
BRANCH  22  23
ATOM     23  C   UNL     1      19.434 -23.417  -1.069  1.00  0.00    +0.182 C 
ATOM     24  O   UNL     1      19.683 -24.252  -0.199  1.00  0.00    -0.292 OA
BRANCH  23  25
ATOM     25  C   UNL     1      20.238 -23.430  -2.329  1.00  0.00    +0.020 A 
ATOM     26  C   UNL     1      21.271 -24.350  -2.553  1.00  0.00    +0.015 A 
ATOM     27  C   UNL     1      19.935 -22.483  -3.323  1.00  0.00    +0.028 A 
ATOM     28  C   UNL     1      21.988 -24.315  -3.752  1.00  0.00    +0.040 A 
ATOM     29  C   UNL     1      20.654 -22.446  -4.530  1.00  0.00    +0.092 A 
ATOM     30  C   UNL     1      21.676 -23.369  -4.725  1.00  0.00    +0.135 A 
ATOM     31  F   UNL     1      22.380 -23.361  -5.863  1.00  0.00    -0.206 F 
BRANCH  29  32
ATOM     32  C   UNL     1      20.354 -21.448  -5.608  1.00  0.00    +0.419 C 
ATOM     33  F   UNL     1      19.302 -20.634  -5.306  1.00  0.00    -0.166 F 
ATOM     34  F   UNL     1      21.399 -20.614  -5.862  1.00  0.00    -0.166 F 
ATOM     35  F   UNL     1      20.034 -22.032  -6.794  1.00  0.00    -0.166 F 
ENDBRANCH  29  32
ENDBRANCH  23  25
ENDBRANCH  22  23
ENDBRANCH   6  22
TORSDOF 7
ENDMDL
MODEL 9
REMARK VINA RESULT:    -8.641      3.087      4.879
REMARK INTER + INTRA:         -13.042
REMARK INTER:                 -11.903
REMARK INTRA:                  -1.140
REMARK UNBOUND:                -1.117
REMARK SMILES CC1(c2ccc(S(N)(=O)=O)cc2)NC(=O)N(CC(=O)c2ccc(F)c(C(F)(F)F)c2)C1=O
REMARK SMILES IDX 1 1 2 2 13 3 14 4 15 5 16 6 31 7 32 8 3 10 4 11 12 12 5 13
REMARK SMILES IDX 11 14 6 15 7 16 9 17 10 18 8 19 17 22 18 23 19 24 20 25
REMARK SMILES IDX 21 26 30 27 22 28 25 29 23 30 24 31 26 32 27 33 28 34 29 35
REMARK H PARENT 13 9 8 20 8 21
ROOT
ATOM      1  C   UNL     1      19.850 -24.962  -0.334  1.00  0.00    +0.051 C 
ATOM      2  C   UNL     1      19.683 -23.477  -0.670  1.00  0.00    +0.144 C 
ATOM      3  N   UNL     1      20.474 -22.680   0.250  1.00  0.00    -0.319 N 
ATOM      4  C   UNL     1      19.703 -21.975   1.138  1.00  0.00    +0.325 C 
ATOM      5  O   UNL     1      20.150 -21.324   2.067  1.00  0.00    -0.248 OA
ATOM      6  N   UNL     1      18.397 -22.136   0.805  1.00  0.00    -0.254 N 
ATOM      7  C   UNL     1      18.270 -23.009  -0.239  1.00  0.00    +0.261 C 
ATOM      8  O   UNL     1      17.206 -23.376  -0.727  1.00  0.00    -0.271 OA
ATOM      9  H   UNL     1      21.467 -22.788   0.406  1.00  0.00    +0.166 HD
ENDROOT
BRANCH   2  10
ATOM     10  C   UNL     1      19.978 -23.167  -2.136  1.00  0.00    -0.013 A 
ATOM     11  C   UNL     1      20.654 -24.074  -2.974  1.00  0.00    +0.008 A 
ATOM     12  C   UNL     1      19.562 -21.941  -2.693  1.00  0.00    +0.008 A 
ATOM     13  C   UNL     1      20.904 -23.770  -4.316  1.00  0.00    +0.022 A 
ATOM     14  C   UNL     1      19.810 -21.630  -4.032  1.00  0.00    +0.022 A 
ATOM     15  C   UNL     1      20.489 -22.544  -4.836  1.00  0.00    +0.082 A 
BRANCH  15  16
ATOM     16  S   UNL     1      20.774 -22.170  -6.540  1.00  0.00    +0.238 S 
ATOM     17  O   UNL     1      22.141 -22.493  -6.876  1.00  0.00    -0.207 OA
ATOM     18  O   UNL     1      20.180 -20.891  -6.853  1.00  0.00    -0.207 OA
BRANCH  16  19
ATOM     19  N   UNL     1      19.824 -23.320  -7.311  1.00  0.00    -0.225 NA
ATOM     20  H   UNL     1      20.241 -24.244  -7.199  1.00  0.00    +0.137 HD
ATOM     21  H   UNL     1      19.676 -23.050  -8.284  1.00  0.00    +0.137 HD
ENDBRANCH  16  19
ENDBRANCH  15  16
ENDBRANCH   2  10
BRANCH   6  22
ATOM     22  C   UNL     1      17.293 -21.612   1.573  1.00  0.00    +0.211 C 
BRANCH  22  23
ATOM     23  C   UNL     1      17.013 -20.178   1.130  1.00  0.00    +0.182 C 
ATOM     24  O   UNL     1      17.570 -19.659   0.163  1.00  0.00    -0.292 OA
BRANCH  23  25
ATOM     25  C   UNL     1      16.031 -19.368   1.914  1.00  0.00    +0.020 A 
ATOM     26  C   UNL     1      15.392 -18.240   1.384  1.00  0.00    +0.015 A 
ATOM     27  C   UNL     1      15.740 -19.766   3.232  1.00  0.00    +0.028 A 
ATOM     28  C   UNL     1      14.482 -17.523   2.164  1.00  0.00    +0.040 A 
ATOM     29  C   UNL     1      14.824 -19.047   4.018  1.00  0.00    +0.092 A 
ATOM     30  C   UNL     1      14.207 -17.929   3.467  1.00  0.00    +0.135 A 
ATOM     31  F   UNL     1      13.330 -17.222   4.189  1.00  0.00    -0.206 F 
BRANCH  29  32
ATOM     32  C   UNL     1      14.494 -19.446   5.425  1.00  0.00    +0.419 C 
ATOM     33  F   UNL     1      13.178 -19.763   5.596  1.00  0.00    -0.166 F 
ATOM     34  F   UNL     1      15.189 -20.540   5.842  1.00  0.00    -0.166 F 
ATOM     35  F   UNL     1      14.752 -18.462   6.328  1.00  0.00    -0.166 F 
ENDBRANCH  29  32
ENDBRANCH  23  25
ENDBRANCH  22  23
ENDBRANCH   6  22
TORSDOF 7
ENDMDL
