MODEL 1
REMARK VINA RESULT:    -9.429      0.000      0.000
REMARK INTER + INTRA:         -13.908
REMARK INTER:                 -12.736
REMARK INTRA:                  -1.173
REMARK UNBOUND:                -1.173
REMARK SMILES CC1(c2ccc(C#N)cc2)NC(=O)N(CC(=O)c2cccc(OC(F)(F)F)c2)C1=O
REMARK SMILES IDX 18 1 19 2 20 3 21 4 22 5 28 6 16 7 17 8 15 9 14 10 2 11
REMARK SMILES IDX 11 12 29 13 12 14 30 15 13 16 1 17 3 19 4 20 10 21 5 22 9 23
REMARK SMILES IDX 6 24 7 25 8 26 23 27 24 28 25 29 26 30 27 31
REMARK H PARENT 11 18
ROOT
ATOM      1  C   UNL     1      15.806 -19.234   2.201  1.00  0.00    +0.023 A 
ATOM      2  C   UNL     1      16.796 -20.134   2.605  1.00  0.00    +0.012 A 
ATOM      3  C   UNL     1      16.715 -20.739   3.861  1.00  0.00    +0.005 A 
ATOM      4  C   UNL     1      15.654 -20.451   4.722  1.00  0.00    +0.047 A 
ATOM      5  C   UNL     1      14.659 -19.554   4.333  1.00  0.00    +0.130 A 
ATOM      6  C   UNL     1      14.744 -18.950   3.073  1.00  0.00    +0.058 A 
ENDROOT
BRANCH   1   7
ATOM      7  C   UNL     1      15.833 -18.552   0.870  1.00  0.00    +0.182 C 
ATOM      8  O   UNL     1      16.124 -17.357   0.817  1.00  0.00    -0.292 OA
BRANCH   7   9
ATOM      9  C   UNL     1      15.503 -19.377  -0.371  1.00  0.00    +0.211 C 
BRANCH   9  10
ATOM     10  N   UNL     1      16.715 -19.963  -0.898  1.00  0.00    -0.254 N 
ATOM     11  C   UNL     1      18.492 -21.466  -1.334  1.00  0.00    +0.144 C 
ATOM     12  N   UNL     1      18.751 -20.108  -1.772  1.00  0.00    -0.319 N 
ATOM     13  C   UNL     1      17.078 -21.272  -0.734  1.00  0.00    +0.261 C 
ATOM     14  C   UNL     1      17.718 -19.252  -1.476  1.00  0.00    +0.325 C 
ATOM     15  O   UNL     1      16.388 -22.144  -0.221  1.00  0.00    -0.271 OA
ATOM     16  O   UNL     1      17.736 -18.054  -1.703  1.00  0.00    -0.248 OA
ATOM     17  C   UNL     1      18.351 -22.369  -2.564  1.00  0.00    +0.051 C 
ATOM     18  H   UNL     1      19.641 -19.759  -2.101  1.00  0.00    +0.166 HD
BRANCH  11  19
ATOM     19  C   UNL     1      19.519 -21.898  -0.291  1.00  0.00    -0.013 A 
ATOM     20  C   UNL     1      19.444 -21.497   1.053  1.00  0.00    +0.008 A 
ATOM     21  C   UNL     1      20.588 -22.742  -0.658  1.00  0.00    +0.008 A 
ATOM     22  C   UNL     1      20.400 -21.913   1.990  1.00  0.00    +0.020 A 
ATOM     23  C   UNL     1      21.544 -23.159   0.274  1.00  0.00    +0.020 A 
ATOM     24  C   UNL     1      21.453 -22.744   1.603  1.00  0.00    +0.052 A 
ATOM     25  C   UNL     1      22.429 -23.169   2.562  1.00  0.00    +0.099 C 
ATOM     26  N   UNL     1      23.213 -23.511   3.346  1.00  0.00    -0.192 NA
ENDBRANCH  11  19
ENDBRANCH   9  10
ENDBRANCH   7   9
ENDBRANCH   1   7
BRANCH   5  27
ATOM     27  O   UNL     1      13.571 -19.179   5.067  1.00  0.00    -0.406 OA
BRANCH  27  28
ATOM     28  C   UNL     1      13.597 -17.908   5.693  1.00  0.00    +0.573 C 
ATOM     29  F   UNL     1      13.306 -16.926   4.812  1.00  0.00    -0.132 F 
ATOM     30  F   UNL     1      12.665 -17.885   6.670  1.00  0.00    -0.132 F 
ATOM     31  F   UNL     1      14.801 -17.668   6.253  1.00  0.00    -0.132 F 
ENDBRANCH  27  28
ENDBRANCH   5  27
TORSDOF 6
ENDMDL
MODEL 2
REMARK VINA RESULT:    -9.246      2.891      5.715
REMARK INTER + INTRA:         -13.662
REMARK INTER:                 -11.926
REMARK INTRA:                  -1.736
REMARK UNBOUND:                -1.173
REMARK SMILES CC1(c2ccc(C#N)cc2)NC(=O)N(CC(=O)c2cccc(OC(F)(F)F)c2)C1=O
REMARK SMILES IDX 18 1 19 2 20 3 21 4 22 5 28 6 16 7 17 8 15 9 14 10 2 11
REMARK SMILES IDX 11 12 29 13 12 14 30 15 13 16 1 17 3 19 4 20 10 21 5 22 9 23
REMARK SMILES IDX 6 24 7 25 8 26 23 27 24 28 25 29 26 30 27 31
REMARK H PARENT 11 18
ROOT
ATOM      1  C   UNL     1      17.170 -23.366   2.359  1.00  0.00    +0.023 A 
ATOM      2  C   UNL     1      18.161 -24.195   2.892  1.00  0.00    +0.012 A 
ATOM      3  C   UNL     1      18.534 -24.060   4.232  1.00  0.00    +0.005 A 
ATOM      4  C   UNL     1      17.925 -23.101   5.045  1.00  0.00    +0.047 A 
ATOM      5  C   UNL     1      16.935 -22.267   4.527  1.00  0.00    +0.130 A 
ATOM      6  C   UNL     1      16.565 -22.406   3.184  1.00  0.00    +0.058 A 
ENDROOT
BRANCH   1   7
ATOM      7  C   UNL     1      16.725 -23.459   0.934  1.00  0.00    +0.182 C 
ATOM      8  O   UNL     1      15.721 -24.119   0.664  1.00  0.00    -0.292 OA
BRANCH   7   9
ATOM      9  C   UNL     1      17.538 -22.722  -0.127  1.00  0.00    +0.211 C 
BRANCH   9  10
ATOM     10  N   UNL     1      16.989 -21.400  -0.322  1.00  0.00    -0.254 N 
ATOM     11  C   UNL     1      16.465 -19.108  -0.037  1.00  0.00    +0.144 C 
ATOM     12  N   UNL     1      15.607 -19.793  -0.985  1.00  0.00    -0.319 N 
ATOM     13  C   UNL     1      17.375 -20.289   0.379  1.00  0.00    +0.261 C 
ATOM     14  C   UNL     1      15.913 -21.127  -1.105  1.00  0.00    +0.325 C 
ATOM     15  O   UNL     1      18.300 -20.237   1.180  1.00  0.00    -0.271 OA
ATOM     16  O   UNL     1      15.294 -21.911  -1.804  1.00  0.00    -0.248 OA
ATOM     17  C   UNL     1      17.336 -18.098  -0.792  1.00  0.00    +0.051 C 
ATOM     18  H   UNL     1      14.767 -19.410  -1.396  1.00  0.00    +0.166 HD
BRANCH  11  19
ATOM     19  C   UNL     1      15.645 -18.558   1.128  1.00  0.00    -0.013 A 
ATOM     20  C   UNL     1      14.990 -17.317   1.069  1.00  0.00    +0.008 A 
ATOM     21  C   UNL     1      15.512 -19.308   2.315  1.00  0.00    +0.008 A 
ATOM     22  C   UNL     1      14.241 -16.840   2.153  1.00  0.00    +0.020 A 
ATOM     23  C   UNL     1      14.766 -18.834   3.399  1.00  0.00    +0.020 A 
ATOM     24  C   UNL     1      14.128 -17.596   3.321  1.00  0.00    +0.052 A 
ATOM     25  C   UNL     1      13.361 -17.106   4.428  1.00  0.00    +0.099 C 
ATOM     26  N   UNL     1      12.735 -16.704   5.319  1.00  0.00    -0.192 NA
ENDBRANCH  11  19
ENDBRANCH   9  10
ENDBRANCH   7   9
ENDBRANCH   1   7
BRANCH   5  27
ATOM     27  O   UNL     1      16.259 -21.291   5.201  1.00  0.00    -0.406 OA
BRANCH  27  28
ATOM     28  C   UNL     1      15.050 -21.647   5.849  1.00  0.00    +0.573 C 
ATOM     29  F   UNL     1      15.283 -22.454   6.906  1.00  0.00    -0.132 F 
ATOM     30  F   UNL     1      14.452 -20.524   6.302  1.00  0.00    -0.132 F 
ATOM     31  F   UNL     1      14.203 -22.258   4.994  1.00  0.00    -0.132 F 
ENDBRANCH  27  28
ENDBRANCH   5  27
TORSDOF 6
ENDMDL
MODEL 3
REMARK VINA RESULT:    -9.124      2.290      2.832
REMARK INTER + INTRA:         -13.496
REMARK INTER:                 -11.724
REMARK INTRA:                  -1.772
REMARK UNBOUND:                -1.173
REMARK SMILES CC1(c2ccc(C#N)cc2)NC(=O)N(CC(=O)c2cccc(OC(F)(F)F)c2)C1=O
REMARK SMILES IDX 18 1 19 2 20 3 21 4 22 5 28 6 16 7 17 8 15 9 14 10 2 11
REMARK SMILES IDX 11 12 29 13 12 14 30 15 13 16 1 17 3 19 4 20 10 21 5 22 9 23
REMARK SMILES IDX 6 24 7 25 8 26 23 27 24 28 25 29 26 30 27 31
REMARK H PARENT 11 18
ROOT
ATOM      1  C   UNL     1      15.695 -18.986   2.162  1.00  0.00    +0.023 A 
ATOM      2  C   UNL     1      14.665 -18.614   3.029  1.00  0.00    +0.012 A 
ATOM      3  C   UNL     1      14.593 -19.175   4.306  1.00  0.00    +0.005 A 
ATOM      4  C   UNL     1      15.543 -20.110   4.725  1.00  0.00    +0.047 A 
ATOM      5  C   UNL     1      16.576 -20.492   3.871  1.00  0.00    +0.130 A 
ATOM      6  C   UNL     1      16.644 -19.927   2.592  1.00  0.00    +0.058 A 
ENDROOT
BRANCH   1   7
ATOM      7  C   UNL     1      15.829 -18.423   0.783  1.00  0.00    +0.182 C 
ATOM      8  O   UNL     1      16.210 -17.260   0.647  1.00  0.00    -0.292 OA
BRANCH   7   9
ATOM      9  C   UNL     1      15.492 -19.324  -0.402  1.00  0.00    +0.211 C 
BRANCH   9  10
ATOM     10  N   UNL     1      16.697 -19.956  -0.887  1.00  0.00    -0.254 N 
ATOM     11  C   UNL     1      18.438 -21.521  -1.250  1.00  0.00    +0.144 C 
ATOM     12  N   UNL     1      18.750 -20.179  -1.705  1.00  0.00    -0.319 N 
ATOM     13  C   UNL     1      17.015 -21.273  -0.691  1.00  0.00    +0.261 C 
ATOM     14  C   UNL     1      17.737 -19.287  -1.451  1.00  0.00    +0.325 C 
ATOM     15  O   UNL     1      16.286 -22.114  -0.181  1.00  0.00    -0.271 OA
ATOM     16  O   UNL     1      17.797 -18.095  -1.698  1.00  0.00    -0.248 OA
ATOM     17  C   UNL     1      18.300 -22.441  -2.468  1.00  0.00    +0.051 C 
ATOM     18  H   UNL     1      19.658 -19.864  -2.016  1.00  0.00    +0.166 HD
BRANCH  11  19
ATOM     19  C   UNL     1      19.424 -21.965  -0.173  1.00  0.00    -0.013 A 
ATOM     20  C   UNL     1      19.471 -21.371   1.099  1.00  0.00    +0.008 A 
ATOM     21  C   UNL     1      20.327 -23.019  -0.431  1.00  0.00    +0.008 A 
ATOM     22  C   UNL     1      20.385 -21.803   2.069  1.00  0.00    +0.020 A 
ATOM     23  C   UNL     1      21.240 -23.451   0.534  1.00  0.00    +0.020 A 
ATOM     24  C   UNL     1      21.272 -22.843   1.789  1.00  0.00    +0.052 A 
ATOM     25  C   UNL     1      22.206 -23.284   2.784  1.00  0.00    +0.099 C 
ATOM     26  N   UNL     1      22.957 -23.637   3.594  1.00  0.00    -0.192 NA
ENDBRANCH  11  19
ENDBRANCH   9  10
ENDBRANCH   7   9
ENDBRANCH   1   7
BRANCH   5  27
ATOM     27  O   UNL     1      17.568 -21.389   4.145  1.00  0.00    -0.406 OA
BRANCH  27  28
ATOM     28  C   UNL     1      17.231 -22.766   4.166  1.00  0.00    +0.573 C 
ATOM     29  F   UNL     1      16.326 -23.060   3.208  1.00  0.00    -0.132 F 
ATOM     30  F   UNL     1      18.346 -23.491   3.928  1.00  0.00    -0.132 F 
ATOM     31  F   UNL     1      16.743 -23.128   5.372  1.00  0.00    -0.132 F 
ENDBRANCH  27  28
ENDBRANCH   5  27
TORSDOF 6
ENDMDL
MODEL 4
REMARK VINA RESULT:    -9.094      1.887      2.579
REMARK INTER + INTRA:         -13.457
REMARK INTER:                 -12.481
REMARK INTRA:                  -0.976
REMARK UNBOUND:                -1.173
REMARK SMILES CC1(c2ccc(C#N)cc2)NC(=O)N(CC(=O)c2cccc(OC(F)(F)F)c2)C1=O
REMARK SMILES IDX 18 1 19 2 20 3 21 4 22 5 28 6 16 7 17 8 15 9 14 10 2 11
REMARK SMILES IDX 11 12 29 13 12 14 30 15 13 16 1 17 3 19 4 20 10 21 5 22 9 23
REMARK SMILES IDX 6 24 7 25 8 26 23 27 24 28 25 29 26 30 27 31
REMARK H PARENT 11 18
ROOT
ATOM      1  C   UNL     1      15.314 -19.293   3.288  1.00  0.00    +0.023 A 
ATOM      2  C   UNL     1      14.493 -18.196   3.565  1.00  0.00    +0.012 A 
ATOM      3  C   UNL     1      13.610 -18.244   4.647  1.00  0.00    +0.005 A 
ATOM      4  C   UNL     1      13.538 -19.381   5.455  1.00  0.00    +0.047 A 
ATOM      5  C   UNL     1      14.351 -20.482   5.191  1.00  0.00    +0.130 A 
ATOM      6  C   UNL     1      15.234 -20.431   4.106  1.00  0.00    +0.058 A 
ENDROOT
BRANCH   1   7
ATOM      7  C   UNL     1      16.280 -19.306   2.147  1.00  0.00    +0.182 C 
ATOM      8  O   UNL     1      17.488 -19.298   2.387  1.00  0.00    -0.292 OA
BRANCH   7   9
ATOM      9  C   UNL     1      15.721 -19.336   0.727  1.00  0.00    +0.211 C 
BRANCH   9  10
ATOM     10  N   UNL     1      16.694 -19.929  -0.163  1.00  0.00    -0.254 N 
ATOM     11  C   UNL     1      18.185 -21.463  -1.179  1.00  0.00    +0.144 C 
ATOM     12  N   UNL     1      18.378 -20.090  -1.602  1.00  0.00    -0.319 N 
ATOM     13  C   UNL     1      17.019 -21.259  -0.181  1.00  0.00    +0.261 C 
ATOM     14  C   UNL     1      17.523 -19.219  -0.972  1.00  0.00    +0.325 C 
ATOM     15  O   UNL     1      16.463 -22.138   0.466  1.00  0.00    -0.271 OA
ATOM     16  O   UNL     1      17.537 -18.010  -1.131  1.00  0.00    -0.248 OA
ATOM     17  C   UNL     1      17.644 -22.279  -2.359  1.00  0.00    +0.051 C 
ATOM     18  H   UNL     1      19.150 -19.752  -2.159  1.00  0.00    +0.166 HD
BRANCH  11  19
ATOM     19  C   UNL     1      19.447 -22.000  -0.507  1.00  0.00    -0.013 A 
ATOM     20  C   UNL     1      20.422 -22.729  -1.208  1.00  0.00    +0.008 A 
ATOM     21  C   UNL     1      19.676 -21.760   0.864  1.00  0.00    +0.008 A 
ATOM     22  C   UNL     1      21.573 -23.205  -0.566  1.00  0.00    +0.020 A 
ATOM     23  C   UNL     1      20.822 -22.235   1.508  1.00  0.00    +0.020 A 
ATOM     24  C   UNL     1      21.775 -22.961   0.793  1.00  0.00    +0.052 A 
ATOM     25  C   UNL     1      22.953 -23.449   1.448  1.00  0.00    +0.099 C 
ATOM     26  N   UNL     1      23.911 -23.845   1.970  1.00  0.00    -0.192 NA
ENDBRANCH  11  19
ENDBRANCH   9  10
ENDBRANCH   7   9
ENDBRANCH   1   7
BRANCH   5  27
ATOM     27  O   UNL     1      14.386 -21.653   5.892  1.00  0.00    -0.406 OA
BRANCH  27  28
ATOM     28  C   UNL     1      15.574 -21.971   6.597  1.00  0.00    +0.573 C 
ATOM     29  F   UNL     1      16.141 -20.861   7.118  1.00  0.00    -0.132 F 
ATOM     30  F   UNL     1      15.267 -22.804   7.615  1.00  0.00    -0.132 F 
ATOM     31  F   UNL     1      16.462 -22.596   5.795  1.00  0.00    -0.132 F 
ENDBRANCH  27  28
ENDBRANCH   5  27
TORSDOF 6
ENDMDL
MODEL 5
REMARK VINA RESULT:    -9.002      2.813      5.884
REMARK INTER + INTRA:         -13.332
REMARK INTER:                 -11.126
REMARK INTRA:                  -2.206
REMARK UNBOUND:                -1.173
REMARK SMILES CC1(c2ccc(C#N)cc2)NC(=O)N(CC(=O)c2cccc(OC(F)(F)F)c2)C1=O
REMARK SMILES IDX 18 1 19 2 20 3 21 4 22 5 28 6 16 7 17 8 15 9 14 10 2 11
REMARK SMILES IDX 11 12 29 13 12 14 30 15 13 16 1 17 3 19 4 20 10 21 5 22 9 23
REMARK SMILES IDX 6 24 7 25 8 26 23 27 24 28 25 29 26 30 27 31
REMARK H PARENT 11 18
ROOT
ATOM      1  C   UNL     1      17.282 -21.614  -0.747  1.00  0.00    +0.023 A 
ATOM      2  C   UNL     1      18.204 -20.945  -1.557  1.00  0.00    +0.012 A 
ATOM      3  C   UNL     1      18.112 -19.560  -1.719  1.00  0.00    +0.005 A 
ATOM      4  C   UNL     1      17.103 -18.836  -1.079  1.00  0.00    +0.047 A 
ATOM      5  C   UNL     1      16.177 -19.490  -0.268  1.00  0.00    +0.130 A 
ATOM      6  C   UNL     1      16.272 -20.877  -0.109  1.00  0.00    +0.058 A 
ENDROOT
BRANCH   1   7
ATOM      7  C   UNL     1      17.325 -23.093  -0.532  1.00  0.00    +0.182 C 
ATOM      8  O   UNL     1      16.342 -23.769  -0.835  1.00  0.00    -0.292 OA
BRANCH   7   9
ATOM      9  C   UNL     1      18.597 -23.702   0.051  1.00  0.00    +0.211 C 
BRANCH   9  10
ATOM     10  N   UNL     1      18.776 -23.240   1.408  1.00  0.00    -0.254 N 
ATOM     11  C   UNL     1      18.432 -22.815   3.713  1.00  0.00    +0.144 C 
ATOM     12  N   UNL     1      19.470 -21.998   3.114  1.00  0.00    -0.319 N 
ATOM     13  C   UNL     1      18.001 -23.628   2.468  1.00  0.00    +0.261 C 
ATOM     14  C   UNL     1      19.624 -22.243   1.771  1.00  0.00    +0.325 C 
ATOM     15  O   UNL     1      17.131 -24.490   2.437  1.00  0.00    -0.271 OA
ATOM     16  O   UNL     1      20.401 -21.639   1.050  1.00  0.00    -0.248 OA
ATOM     17  C   UNL     1      19.075 -23.794   4.702  1.00  0.00    +0.051 C 
ATOM     18  H   UNL     1      19.926 -21.214   3.558  1.00  0.00    +0.166 HD
BRANCH  11  19
ATOM     19  C   UNL     1      17.309 -21.938   4.261  1.00  0.00    -0.013 A 
ATOM     20  C   UNL     1      17.378 -21.327   5.524  1.00  0.00    +0.008 A 
ATOM     21  C   UNL     1      16.153 -21.704   3.488  1.00  0.00    +0.008 A 
ATOM     22  C   UNL     1      16.333 -20.523   5.999  1.00  0.00    +0.020 A 
ATOM     23  C   UNL     1      15.108 -20.903   3.960  1.00  0.00    +0.020 A 
ATOM     24  C   UNL     1      15.195 -20.310   5.219  1.00  0.00    +0.052 A 
ATOM     25  C   UNL     1      14.128 -19.488   5.707  1.00  0.00    +0.099 C 
ATOM     26  N   UNL     1      13.269 -18.818   6.108  1.00  0.00    -0.192 NA
ENDBRANCH  11  19
ENDBRANCH   9  10
ENDBRANCH   7   9
ENDBRANCH   1   7
BRANCH   5  27
ATOM     27  O   UNL     1      15.144 -18.913   0.414  1.00  0.00    -0.406 OA
BRANCH  27  28
ATOM     28  C   UNL     1      15.453 -18.152   1.569  1.00  0.00    +0.573 C 
ATOM     29  F   UNL     1      16.609 -18.567   2.130  1.00  0.00    -0.132 F 
ATOM     30  F   UNL     1      15.600 -16.858   1.211  1.00  0.00    -0.132 F 
ATOM     31  F   UNL     1      14.460 -18.226   2.480  1.00  0.00    -0.132 F 
ENDBRANCH  27  28
ENDBRANCH   5  27
TORSDOF 6
ENDMDL
MODEL 6
REMARK VINA RESULT:    -8.976      2.695      3.254
REMARK INTER + INTRA:         -13.296
REMARK INTER:                 -11.889
REMARK INTRA:                  -1.407
REMARK UNBOUND:                -1.173
REMARK SMILES CC1(c2ccc(C#N)cc2)NC(=O)N(CC(=O)c2cccc(OC(F)(F)F)c2)C1=O
REMARK SMILES IDX 18 1 19 2 20 3 21 4 22 5 28 6 16 7 17 8 15 9 14 10 2 11
REMARK SMILES IDX 11 12 29 13 12 14 30 15 13 16 1 17 3 19 4 20 10 21 5 22 9 23
REMARK SMILES IDX 6 24 7 25 8 26 23 27 24 28 25 29 26 30 27 31
REMARK H PARENT 11 18
ROOT
ATOM      1  C   UNL     1      15.249 -18.528   2.563  1.00  0.00    +0.023 A 
ATOM      2  C   UNL     1      14.233 -17.574   2.675  1.00  0.00    +0.012 A 
ATOM      3  C   UNL     1      13.476 -17.498   3.847  1.00  0.00    +0.005 A 
ATOM      4  C   UNL     1      13.722 -18.371   4.909  1.00  0.00    +0.047 A 
ATOM      5  C   UNL     1      14.731 -19.327   4.812  1.00  0.00    +0.130 A 
ATOM      6  C   UNL     1      15.488 -19.400   3.637  1.00  0.00    +0.058 A 
ENDROOT
BRANCH   1   7
ATOM      7  C   UNL     1      16.095 -18.661   1.338  1.00  0.00    +0.182 C 
ATOM      8  O   UNL     1      15.746 -18.087   0.306  1.00  0.00    -0.292 OA
BRANCH   7   9
ATOM      9  C   UNL     1      17.366 -19.502   1.424  1.00  0.00    +0.211 C 
BRANCH   9  10
ATOM     10  N   UNL     1      17.278 -20.606   0.497  1.00  0.00    -0.254 N 
ATOM     11  C   UNL     1      17.009 -22.777  -0.411  1.00  0.00    +0.144 C 
ATOM     12  N   UNL     1      17.612 -21.829  -1.327  1.00  0.00    -0.319 N 
ATOM     13  C   UNL     1      16.825 -21.857   0.821  1.00  0.00    +0.261 C 
ATOM     14  C   UNL     1      17.786 -20.589  -0.763  1.00  0.00    +0.325 C 
ATOM     15  O   UNL     1      16.335 -22.182   1.895  1.00  0.00    -0.271 OA
ATOM     16  O   UNL     1      18.321 -19.649  -1.328  1.00  0.00    -0.248 OA
ATOM     17  C   UNL     1      15.612 -23.147  -0.923  1.00  0.00    +0.051 C 
ATOM     18  H   UNL     1      18.026 -22.060  -2.220  1.00  0.00    +0.166 HD
BRANCH  11  19
ATOM     19  C   UNL     1      17.961 -23.940  -0.139  1.00  0.00    -0.013 A 
ATOM     20  C   UNL     1      19.328 -23.886  -0.458  1.00  0.00    +0.008 A 
ATOM     21  C   UNL     1      17.481 -25.121   0.464  1.00  0.00    +0.008 A 
ATOM     22  C   UNL     1      20.179 -24.967  -0.192  1.00  0.00    +0.020 A 
ATOM     23  C   UNL     1      18.326 -26.203   0.728  1.00  0.00    +0.020 A 
ATOM     24  C   UNL     1      19.680 -26.129   0.400  1.00  0.00    +0.052 A 
ATOM     25  C   UNL     1      20.552 -27.234   0.670  1.00  0.00    +0.099 C 
ATOM     26  N   UNL     1      21.265 -28.123   0.889  1.00  0.00    -0.192 NA
ENDBRANCH  11  19
ENDBRANCH   9  10
ENDBRANCH   7   9
ENDBRANCH   1   7
BRANCH   5  27
ATOM     27  O   UNL     1      15.081 -20.240   5.765  1.00  0.00    -0.406 OA
BRANCH  27  28
ATOM     28  C   UNL     1      14.687 -21.588   5.571  1.00  0.00    +0.573 C 
ATOM     29  F   UNL     1      15.579 -22.249   4.802  1.00  0.00    -0.132 F 
ATOM     30  F   UNL     1      14.631 -22.203   6.772  1.00  0.00    -0.132 F 
ATOM     31  F   UNL     1      13.464 -21.660   5.004  1.00  0.00    -0.132 F 
ENDBRANCH  27  28
ENDBRANCH   5  27
TORSDOF 6
ENDMDL
MODEL 7
REMARK VINA RESULT:    -8.901      2.369      3.597
REMARK INTER + INTRA:         -13.195
REMARK INTER:                 -12.107
REMARK INTRA:                  -1.088
REMARK UNBOUND:                -1.173
REMARK SMILES CC1(c2ccc(C#N)cc2)NC(=O)N(CC(=O)c2cccc(OC(F)(F)F)c2)C1=O
REMARK SMILES IDX 18 1 19 2 20 3 21 4 22 5 28 6 16 7 17 8 15 9 14 10 2 11
REMARK SMILES IDX 11 12 29 13 12 14 30 15 13 16 1 17 3 19 4 20 10 21 5 22 9 23
REMARK SMILES IDX 6 24 7 25 8 26 23 27 24 28 25 29 26 30 27 31
REMARK H PARENT 11 18
ROOT
ATOM      1  C   UNL     1      15.684 -20.355   4.854  1.00  0.00    +0.023 A 
ATOM      2  C   UNL     1      16.546 -19.771   5.786  1.00  0.00    +0.012 A 
ATOM      3  C   UNL     1      16.115 -18.680   6.545  1.00  0.00    +0.005 A 
ATOM      4  C   UNL     1      14.827 -18.164   6.378  1.00  0.00    +0.047 A 
ATOM      5  C   UNL     1      13.957 -18.736   5.451  1.00  0.00    +0.130 A 
ATOM      6  C   UNL     1      14.393 -19.829   4.693  1.00  0.00    +0.058 A 
ENDROOT
BRANCH   1   7
ATOM      7  C   UNL     1      16.084 -21.524   4.011  1.00  0.00    +0.182 C 
ATOM      8  O   UNL     1      15.328 -22.493   3.938  1.00  0.00    -0.292 OA
BRANCH   7   9
ATOM      9  C   UNL     1      17.417 -21.460   3.271  1.00  0.00    +0.211 C 
BRANCH   9  10
ATOM     10  N   UNL     1      17.176 -21.405   1.847  1.00  0.00    -0.254 N 
ATOM     11  C   UNL     1      17.138 -21.942  -0.459  1.00  0.00    +0.144 C 
ATOM     12  N   UNL     1      16.799 -20.561  -0.173  1.00  0.00    -0.319 N 
ATOM     13  C   UNL     1      17.395 -22.444   0.983  1.00  0.00    +0.261 C 
ATOM     14  C   UNL     1      16.862 -20.271   1.168  1.00  0.00    +0.325 C 
ATOM     15  O   UNL     1      17.716 -23.581   1.302  1.00  0.00    -0.271 OA
ATOM     16  O   UNL     1      16.668 -19.162   1.638  1.00  0.00    -0.248 OA
ATOM     17  C   UNL     1      15.891 -22.664  -0.983  1.00  0.00    +0.051 C 
ATOM     18  H   UNL     1      16.693 -19.830  -0.862  1.00  0.00    +0.166 HD
BRANCH  11  19
ATOM     19  C   UNL     1      18.383 -22.017  -1.339  1.00  0.00    -0.013 A 
ATOM     20  C   UNL     1      19.621 -22.473  -0.857  1.00  0.00    +0.008 A 
ATOM     21  C   UNL     1      18.317 -21.631  -2.695  1.00  0.00    +0.008 A 
ATOM     22  C   UNL     1      20.747 -22.535  -1.689  1.00  0.00    +0.020 A 
ATOM     23  C   UNL     1      19.438 -21.690  -3.527  1.00  0.00    +0.020 A 
ATOM     24  C   UNL     1      20.659 -22.143  -3.026  1.00  0.00    +0.052 A 
ATOM     25  C   UNL     1      21.811 -22.207  -3.876  1.00  0.00    +0.099 C 
ATOM     26  N   UNL     1      22.748 -22.265  -4.558  1.00  0.00    -0.192 NA
ENDBRANCH  11  19
ENDBRANCH   9  10
ENDBRANCH   7   9
ENDBRANCH   1   7
BRANCH   5  27
ATOM     27  O   UNL     1      12.679 -18.337   5.183  1.00  0.00    -0.406 OA
BRANCH  27  28
ATOM     28  C   UNL     1      12.484 -17.032   4.667  1.00  0.00    +0.573 C 
ATOM     29  F   UNL     1      13.435 -16.720   3.761  1.00  0.00    -0.132 F 
ATOM     30  F   UNL     1      11.283 -16.982   4.051  1.00  0.00    -0.132 F 
ATOM     31  F   UNL     1      12.487 -16.113   5.656  1.00  0.00    -0.132 F 
ENDBRANCH  27  28
ENDBRANCH   5  27
TORSDOF 6
ENDMDL
MODEL 8
REMARK VINA RESULT:    -8.827      2.377      3.069
REMARK INTER + INTRA:         -13.096
REMARK INTER:                 -12.296
REMARK INTRA:                  -0.799
REMARK UNBOUND:                -1.173
REMARK SMILES CC1(c2ccc(C#N)cc2)NC(=O)N(CC(=O)c2cccc(OC(F)(F)F)c2)C1=O
REMARK SMILES IDX 18 1 19 2 20 3 21 4 22 5 28 6 16 7 17 8 15 9 14 10 2 11
REMARK SMILES IDX 11 12 29 13 12 14 30 15 13 16 1 17 3 19 4 20 10 21 5 22 9 23
REMARK SMILES IDX 6 24 7 25 8 26 23 27 24 28 25 29 26 30 27 31
REMARK H PARENT 11 18
ROOT
ATOM      1  C   UNL     1      15.011 -18.291   2.599  1.00  0.00    +0.023 A 
ATOM      2  C   UNL     1      14.046 -17.350   2.969  1.00  0.00    +0.012 A 
ATOM      3  C   UNL     1      13.385 -17.476   4.193  1.00  0.00    +0.005 A 
ATOM      4  C   UNL     1      13.677 -18.538   5.053  1.00  0.00    +0.047 A 
ATOM      5  C   UNL     1      14.637 -19.484   4.697  1.00  0.00    +0.130 A 
ATOM      6  C   UNL     1      15.297 -19.354   3.470  1.00  0.00    +0.058 A 
ENDROOT
BRANCH   1   7
ATOM      7  C   UNL     1      15.754 -18.214   1.304  1.00  0.00    +0.182 C 
ATOM      8  O   UNL     1      15.277 -17.555   0.380  1.00  0.00    -0.292 OA
BRANCH   7   9
ATOM      9  C   UNL     1      17.084 -18.954   1.188  1.00  0.00    +0.211 C 
BRANCH   9  10
ATOM     10  N   UNL     1      17.169 -19.594  -0.105  1.00  0.00    -0.254 N 
ATOM     11  C   UNL     1      17.277 -21.234  -1.810  1.00  0.00    +0.144 C 
ATOM     12  N   UNL     1      17.657 -19.905  -2.249  1.00  0.00    -0.319 N 
ATOM     13  C   UNL     1      16.971 -20.931  -0.323  1.00  0.00    +0.261 C 
ATOM     14  C   UNL     1      17.617 -18.982  -1.232  1.00  0.00    +0.325 C 
ATOM     15  O   UNL     1      16.593 -21.741   0.514  1.00  0.00    -0.271 OA
ATOM     16  O   UNL     1      17.944 -17.814  -1.355  1.00  0.00    -0.248 OA
ATOM     17  C   UNL     1      15.956 -21.624  -2.482  1.00  0.00    +0.051 C 
ATOM     18  H   UNL     1      18.072 -19.680  -3.143  1.00  0.00    +0.166 HD
BRANCH  11  19
ATOM     19  C   UNL     1      18.439 -22.208  -1.985  1.00  0.00    -0.013 A 
ATOM     20  C   UNL     1      18.886 -23.043  -0.947  1.00  0.00    +0.008 A 
ATOM     21  C   UNL     1      19.101 -22.306  -3.227  1.00  0.00    +0.008 A 
ATOM     22  C   UNL     1      19.953 -23.932  -1.137  1.00  0.00    +0.020 A 
ATOM     23  C   UNL     1      20.167 -23.190  -3.420  1.00  0.00    +0.020 A 
ATOM     24  C   UNL     1      20.597 -24.006  -2.374  1.00  0.00    +0.052 A 
ATOM     25  C   UNL     1      21.688 -24.916  -2.567  1.00  0.00    +0.099 C 
ATOM     26  N   UNL     1      22.568 -25.657  -2.716  1.00  0.00    -0.192 NA
ENDBRANCH  11  19
ENDBRANCH   9  10
ENDBRANCH   7   9
ENDBRANCH   1   7
BRANCH   5  27
ATOM     27  O   UNL     1      15.023 -20.567   5.433  1.00  0.00    -0.406 OA
BRANCH  27  28
ATOM     28  C   UNL     1      16.242 -20.483   6.151  1.00  0.00    +0.573 C 
ATOM     29  F   UNL     1      16.516 -19.207   6.497  1.00  0.00    -0.132 F 
ATOM     30  F   UNL     1      16.131 -21.211   7.284  1.00  0.00    -0.132 F 
ATOM     31  F   UNL     1      17.266 -20.984   5.428  1.00  0.00    -0.132 F 
ENDBRANCH  27  28
ENDBRANCH   5  27
TORSDOF 6
ENDMDL
MODEL 9
REMARK VINA RESULT:    -8.690      3.779      6.519
REMARK INTER + INTRA:         -12.911
REMARK INTER:                 -10.480
REMARK INTRA:                  -2.431
REMARK UNBOUND:                -1.173
REMARK SMILES CC1(c2ccc(C#N)cc2)NC(=O)N(CC(=O)c2cccc(OC(F)(F)F)c2)C1=O
REMARK SMILES IDX 18 1 19 2 20 3 21 4 22 5 28 6 16 7 17 8 15 9 14 10 2 11
REMARK SMILES IDX 11 12 29 13 12 14 30 15 13 16 1 17 3 19 4 20 10 21 5 22 9 23
REMARK SMILES IDX 6 24 7 25 8 26 23 27 24 28 25 29 26 30 27 31
REMARK H PARENT 11 18
ROOT
ATOM      1  C   UNL     1      18.888 -21.953  -1.223  1.00  0.00    +0.023 A 
ATOM      2  C   UNL     1      18.780 -20.572  -1.037  1.00  0.00    +0.012 A 
ATOM      3  C   UNL     1      17.519 -19.980  -0.933  1.00  0.00    +0.005 A 
ATOM      4  C   UNL     1      16.361 -20.757  -1.014  1.00  0.00    +0.047 A 
ATOM      5  C   UNL     1      16.453 -22.136  -1.199  1.00  0.00    +0.130 A 
ATOM      6  C   UNL     1      17.718 -22.725  -1.304  1.00  0.00    +0.058 A 
ENDROOT
BRANCH   1   7
ATOM      7  C   UNL     1      20.207 -22.647  -1.342  1.00  0.00    +0.182 C 
ATOM      8  O   UNL     1      21.056 -22.189  -2.106  1.00  0.00    -0.292 OA
BRANCH   7   9
ATOM      9  C   UNL     1      20.444 -23.899  -0.501  1.00  0.00    +0.211 C 
BRANCH   9  10
ATOM     10  N   UNL     1      20.294 -23.574   0.900  1.00  0.00    -0.254 N 
ATOM     11  C   UNL     1      19.389 -23.306   3.071  1.00  0.00    +0.144 C 
ATOM     12  N   UNL     1      20.615 -22.564   2.851  1.00  0.00    -0.319 N 
ATOM     13  C   UNL     1      19.235 -23.959   1.675  1.00  0.00    +0.261 C 
ATOM     14  C   UNL     1      21.099 -22.712   1.574  1.00  0.00    +0.325 C 
ATOM     15  O   UNL     1      18.333 -24.712   1.329  1.00  0.00    -0.271 OA
ATOM     16  O   UNL     1      22.089 -22.142   1.147  1.00  0.00    -0.248 OA
ATOM     17  C   UNL     1      19.657 -24.430   4.079  1.00  0.00    +0.051 C 
ATOM     18  H   UNL     1      21.003 -21.876   3.481  1.00  0.00    +0.166 HD
BRANCH  11  19
ATOM     19  C   UNL     1      18.241 -22.356   3.406  1.00  0.00    -0.013 A 
ATOM     20  C   UNL     1      17.589 -22.371   4.650  1.00  0.00    +0.008 A 
ATOM     21  C   UNL     1      17.805 -21.410   2.455  1.00  0.00    +0.008 A 
ATOM     22  C   UNL     1      16.541 -21.484   4.931  1.00  0.00    +0.020 A 
ATOM     23  C   UNL     1      16.758 -20.525   2.732  1.00  0.00    +0.020 A 
ATOM     24  C   UNL     1      16.122 -20.560   3.973  1.00  0.00    +0.052 A 
ATOM     25  C   UNL     1      15.050 -19.654   4.262  1.00  0.00    +0.099 C 
ATOM     26  N   UNL     1      14.183 -18.921   4.505  1.00  0.00    -0.192 NA
ENDBRANCH  11  19
ENDBRANCH   9  10
ENDBRANCH   7   9
ENDBRANCH   1   7
BRANCH   5  27
ATOM     27  O   UNL     1      15.412 -23.014  -1.297  1.00  0.00    -0.406 OA
BRANCH  27  28
ATOM     28  C   UNL     1      15.200 -23.915  -0.224  1.00  0.00    +0.573 C 
ATOM     29  F   UNL     1      15.621 -23.387   0.945  1.00  0.00    -0.132 F 
ATOM     30  F   UNL     1      13.877 -24.165  -0.120  1.00  0.00    -0.132 F 
ATOM     31  F   UNL     1      15.833 -25.087  -0.442  1.00  0.00    -0.132 F 
ENDBRANCH  27  28
ENDBRANCH   5  27
TORSDOF 6
ENDMDL
