MODEL 1
REMARK VINA RESULT:    -8.632      0.000      0.000
REMARK INTER + INTRA:         -13.501
REMARK INTER:                 -11.660
REMARK INTRA:                  -1.841
REMARK UNBOUND:                -1.841
REMARK SMILES CC1(c2ccc(S(N)(=O)=O)cc2)NC(=O)N(CC(=O)c2ccc(F)cc2O)C1=O
REMARK SMILES IDX 1 1 2 2 13 3 14 4 15 5 16 6 28 7 29 8 3 10 4 11 12 12 5 13
REMARK SMILES IDX 11 14 6 15 7 16 9 17 10 18 8 19 17 22 18 23 19 24 20 25
REMARK SMILES IDX 21 26 26 27 22 28 25 29 23 30 24 31 27 32
REMARK H PARENT 13 9 8 20 8 21 27 33
ROOT
ATOM      1  C   UNL     1      17.921 -23.452   4.649  1.00  0.00    +0.051 C 
ATOM      2  C   UNL     1      17.852 -22.469   3.476  1.00  0.00    +0.144 C 
ATOM      3  N   UNL     1      19.185 -21.983   3.178  1.00  0.00    -0.319 N 
ATOM      4  C   UNL     1      19.681 -22.497   2.006  1.00  0.00    +0.325 C 
ATOM      5  O   UNL     1      20.827 -22.333   1.622  1.00  0.00    -0.248 OA
ATOM      6  N   UNL     1      18.701 -23.204   1.390  1.00  0.00    -0.254 N 
ATOM      7  C   UNL     1      17.577 -23.251   2.167  1.00  0.00    +0.261 C 
ATOM      8  O   UNL     1      16.537 -23.833   1.886  1.00  0.00    -0.271 OA
ATOM      9  H   UNL     1      19.807 -21.546   3.845  1.00  0.00    +0.166 HD
ENDROOT
BRANCH   2  10
ATOM     10  C   UNL     1      16.843 -21.343   3.704  1.00  0.00    -0.013 A 
ATOM     11  C   UNL     1      16.585 -20.358   2.732  1.00  0.00    +0.008 A 
ATOM     12  C   UNL     1      16.141 -21.265   4.924  1.00  0.00    +0.008 A 
ATOM     13  C   UNL     1      15.661 -19.334   2.965  1.00  0.00    +0.022 A 
ATOM     14  C   UNL     1      15.218 -20.245   5.166  1.00  0.00    +0.022 A 
ATOM     15  C   UNL     1      14.977 -19.289   4.180  1.00  0.00    +0.082 A 
BRANCH  15  16
ATOM     16  S   UNL     1      13.805 -17.997   4.493  1.00  0.00    +0.238 S 
ATOM     17  O   UNL     1      13.590 -17.270   3.265  1.00  0.00    -0.207 OA
ATOM     18  O   UNL     1      12.720 -18.539   5.278  1.00  0.00    -0.207 OA
BRANCH  16  19
ATOM     19  N   UNL     1      14.670 -17.005   5.544  1.00  0.00    -0.225 NA
ATOM     20  H   UNL     1      15.141 -16.233   5.075  1.00  0.00    +0.137 HD
ATOM     21  H   UNL     1      15.320 -17.581   6.082  1.00  0.00    +0.137 HD
ENDBRANCH  16  19
ENDBRANCH  15  16
ENDBRANCH   2  10
BRANCH   6  22
ATOM     22  C   UNL     1      18.891 -23.959   0.169  1.00  0.00    +0.211 C 
BRANCH  22  23
ATOM     23  C   UNL     1      18.905 -22.980  -1.001  1.00  0.00    +0.186 C 
ATOM     24  O   UNL     1      19.661 -23.115  -1.967  1.00  0.00    -0.292 OA
BRANCH  23  25
ATOM     25  C   UNL     1      17.984 -21.805  -0.978  1.00  0.00    +0.061 A 
ATOM     26  C   UNL     1      18.574 -20.529  -0.937  1.00  0.00    +0.019 A 
ATOM     27  C   UNL     1      16.585 -21.906  -1.007  1.00  0.00    +0.129 A 
ATOM     28  C   UNL     1      17.782 -19.381  -0.910  1.00  0.00    +0.040 A 
ATOM     29  C   UNL     1      15.792 -20.757  -0.979  1.00  0.00    +0.086 A 
ATOM     30  C   UNL     1      16.399 -19.507  -0.928  1.00  0.00    +0.126 A 
ATOM     31  F   UNL     1      15.635 -18.407  -0.902  1.00  0.00    -0.207 F 
BRANCH  27  32
ATOM     32  O   UNL     1      15.975 -23.126  -1.087  1.00  0.00    -0.507 OA
ATOM     33  H   UNL     1      16.194 -23.545  -1.939  1.00  0.00    +0.293 HD
ENDBRANCH  27  32
ENDBRANCH  23  25
ENDBRANCH  22  23
ENDBRANCH   6  22
TORSDOF 7
ENDMDL
MODEL 2
REMARK VINA RESULT:    -8.235      3.402      6.794
REMARK INTER + INTRA:         -12.964
REMARK INTER:                 -11.880
REMARK INTRA:                  -1.085
REMARK UNBOUND:                -1.841
REMARK SMILES CC1(c2ccc(S(N)(=O)=O)cc2)NC(=O)N(CC(=O)c2ccc(F)cc2O)C1=O
REMARK SMILES IDX 1 1 2 2 13 3 14 4 15 5 16 6 28 7 29 8 3 10 4 11 12 12 5 13
REMARK SMILES IDX 11 14 6 15 7 16 9 17 10 18 8 19 17 22 18 23 19 24 20 25
REMARK SMILES IDX 21 26 26 27 22 28 25 29 23 30 24 31 27 32
REMARK H PARENT 13 9 8 20 8 21 27 33
ROOT
ATOM      1  C   UNL     1      18.267 -22.443  -2.274  1.00  0.00    +0.051 C 
ATOM      2  C   UNL     1      18.489 -21.509  -1.079  1.00  0.00    +0.144 C 
ATOM      3  N   UNL     1      18.780 -20.173  -1.561  1.00  0.00    -0.319 N 
ATOM      4  C   UNL     1      17.740 -19.302  -1.350  1.00  0.00    +0.325 C 
ATOM      5  O   UNL     1      17.707 -18.163  -1.786  1.00  0.00    -0.248 OA
ATOM      6  N   UNL     1      16.791 -19.925  -0.607  1.00  0.00    -0.254 N 
ATOM      7  C   UNL     1      17.131 -21.231  -0.387  1.00  0.00    +0.261 C 
ATOM      8  O   UNL     1      16.462 -22.049   0.233  1.00  0.00    -0.271 OA
ATOM      9  H   UNL     1      19.516 -19.938  -2.213  1.00  0.00    +0.166 HD
ENDROOT
BRANCH   2  10
ATOM     10  C   UNL     1      19.541 -22.034  -0.104  1.00  0.00    -0.013 A 
ATOM     11  C   UNL     1      20.485 -23.013  -0.472  1.00  0.00    +0.008 A 
ATOM     12  C   UNL     1      19.585 -21.542   1.217  1.00  0.00    +0.008 A 
ATOM     13  C   UNL     1      21.436 -23.482   0.440  1.00  0.00    +0.022 A 
ATOM     14  C   UNL     1      20.530 -22.007   2.135  1.00  0.00    +0.022 A 
ATOM     15  C   UNL     1      21.457 -22.970   1.737  1.00  0.00    +0.082 A 
BRANCH  15  16
ATOM     16  S   UNL     1      22.654 -23.556   2.905  1.00  0.00    +0.238 S 
ATOM     17  O   UNL     1      22.849 -24.968   2.687  1.00  0.00    -0.207 OA
ATOM     18  O   UNL     1      23.750 -22.615   2.952  1.00  0.00    -0.207 OA
BRANCH  16  19
ATOM     19  N   UNL     1      21.829 -23.359   4.360  1.00  0.00    -0.225 NA
ATOM     20  H   UNL     1      21.542 -24.241   4.783  1.00  0.00    +0.137 HD
ATOM     21  H   UNL     1      21.037 -22.732   4.209  1.00  0.00    +0.137 HD
ENDBRANCH  16  19
ENDBRANCH  15  16
ENDBRANCH   2  10
BRANCH   6  22
ATOM     22  C   UNL     1      15.515 -19.336  -0.263  1.00  0.00    +0.211 C 
BRANCH  22  23
ATOM     23  C   UNL     1      15.730 -18.371   0.898  1.00  0.00    +0.186 C 
ATOM     24  O   UNL     1      16.109 -17.208   0.730  1.00  0.00    -0.292 OA
BRANCH  23  25
ATOM     25  C   UNL     1      15.490 -18.846   2.293  1.00  0.00    +0.061 A 
ATOM     26  C   UNL     1      16.281 -19.916   2.751  1.00  0.00    +0.019 A 
ATOM     27  C   UNL     1      14.543 -18.282   3.160  1.00  0.00    +0.129 A 
ATOM     28  C   UNL     1      16.115 -20.420   4.041  1.00  0.00    +0.040 A 
ATOM     29  C   UNL     1      14.376 -18.788   4.451  1.00  0.00    +0.086 A 
ATOM     30  C   UNL     1      15.162 -19.853   4.876  1.00  0.00    +0.126 A 
ATOM     31  F   UNL     1      15.000 -20.334   6.116  1.00  0.00    -0.207 F 
BRANCH  27  32
ATOM     32  O   UNL     1      13.783 -17.217   2.766  1.00  0.00    -0.507 OA
ATOM     33  H   UNL     1      13.572 -16.664   3.540  1.00  0.00    +0.293 HD
ENDBRANCH  27  32
ENDBRANCH  23  25
ENDBRANCH  22  23
ENDBRANCH   6  22
TORSDOF 7
ENDMDL
MODEL 3
REMARK VINA RESULT:    -8.110      1.407      1.787
REMARK INTER + INTRA:         -12.796
REMARK INTER:                 -11.150
REMARK INTRA:                  -1.646
REMARK UNBOUND:                -1.841
REMARK SMILES CC1(c2ccc(S(N)(=O)=O)cc2)NC(=O)N(CC(=O)c2ccc(F)cc2O)C1=O
REMARK SMILES IDX 1 1 2 2 13 3 14 4 15 5 16 6 28 7 29 8 3 10 4 11 12 12 5 13
REMARK SMILES IDX 11 14 6 15 7 16 9 17 10 18 8 19 17 22 18 23 19 24 20 25
REMARK SMILES IDX 21 26 26 27 22 28 25 29 23 30 24 31 27 32
REMARK H PARENT 13 9 8 20 8 21 27 33
ROOT
ATOM      1  C   UNL     1      18.396 -24.106   4.197  1.00  0.00    +0.051 C 
ATOM      2  C   UNL     1      18.360 -22.850   3.319  1.00  0.00    +0.144 C 
ATOM      3  N   UNL     1      19.702 -22.317   3.188  1.00  0.00    -0.319 N 
ATOM      4  C   UNL     1      20.224 -22.513   1.934  1.00  0.00    +0.325 C 
ATOM      5  O   UNL     1      21.380 -22.266   1.631  1.00  0.00    -0.248 OA
ATOM      6  N   UNL     1      19.257 -23.025   1.133  1.00  0.00    -0.254 N 
ATOM      7  C   UNL     1      18.114 -23.261   1.846  1.00  0.00    +0.261 C 
ATOM      8  O   UNL     1      17.078 -23.740   1.400  1.00  0.00    -0.271 OA
ATOM      9  H   UNL     1      20.309 -22.076   3.960  1.00  0.00    +0.166 HD
ENDROOT
BRANCH   2  10
ATOM     10  C   UNL     1      17.351 -21.813   3.810  1.00  0.00    -0.013 A 
ATOM     11  C   UNL     1      16.896 -20.761   2.992  1.00  0.00    +0.008 A 
ATOM     12  C   UNL     1      16.849 -21.888   5.126  1.00  0.00    +0.008 A 
ATOM     13  C   UNL     1      15.976 -19.820   3.466  1.00  0.00    +0.022 A 
ATOM     14  C   UNL     1      15.931 -20.951   5.607  1.00  0.00    +0.022 A 
ATOM     15  C   UNL     1      15.493 -19.926   4.770  1.00  0.00    +0.082 A 
BRANCH  15  16
ATOM     16  S   UNL     1      14.329 -18.741   5.386  1.00  0.00    +0.238 S 
ATOM     17  O   UNL     1      13.042 -19.384   5.501  1.00  0.00    -0.207 OA
ATOM     18  O   UNL     1      14.940 -18.020   6.479  1.00  0.00    -0.207 OA
BRANCH  16  19
ATOM     19  N   UNL     1      14.255 -17.646   4.109  1.00  0.00    -0.225 NA
ATOM     20  H   UNL     1      14.121 -18.091   3.202  1.00  0.00    +0.137 HD
ATOM     21  H   UNL     1      15.091 -17.060   4.127  1.00  0.00    +0.137 HD
ENDBRANCH  16  19
ENDBRANCH  15  16
ENDBRANCH   2  10
BRANCH   6  22
ATOM     22  C   UNL     1      19.472 -23.437  -0.237  1.00  0.00    +0.211 C 
BRANCH  22  23
ATOM     23  C   UNL     1      19.124 -22.266  -1.150  1.00  0.00    +0.186 C 
ATOM     24  O   UNL     1      19.983 -21.632  -1.771  1.00  0.00    -0.292 OA
BRANCH  23  25
ATOM     25  C   UNL     1      17.696 -21.854  -1.291  1.00  0.00    +0.061 A 
ATOM     26  C   UNL     1      16.831 -22.754  -1.941  1.00  0.00    +0.019 A 
ATOM     27  C   UNL     1      17.179 -20.644  -0.807  1.00  0.00    +0.129 A 
ATOM     28  C   UNL     1      15.482 -22.440  -2.116  1.00  0.00    +0.040 A 
ATOM     29  C   UNL     1      15.829 -20.330  -0.984  1.00  0.00    +0.086 A 
ATOM     30  C   UNL     1      14.997 -21.231  -1.638  1.00  0.00    +0.126 A 
ATOM     31  F   UNL     1      13.703 -20.927  -1.805  1.00  0.00    -0.207 F 
BRANCH  27  32
ATOM     32  O   UNL     1      17.978 -19.761  -0.136  1.00  0.00    -0.507 OA
ATOM     33  H   UNL     1      17.779 -18.854  -0.429  1.00  0.00    +0.293 HD
ENDBRANCH  27  32
ENDBRANCH  23  25
ENDBRANCH  22  23
ENDBRANCH   6  22
TORSDOF 7
ENDMDL
MODEL 4
REMARK VINA RESULT:    -7.943      3.593      7.377
REMARK INTER + INTRA:         -12.570
REMARK INTER:                 -11.503
REMARK INTRA:                  -1.067
REMARK UNBOUND:                -1.841
REMARK SMILES CC1(c2ccc(S(N)(=O)=O)cc2)NC(=O)N(CC(=O)c2ccc(F)cc2O)C1=O
REMARK SMILES IDX 1 1 2 2 13 3 14 4 15 5 16 6 28 7 29 8 3 10 4 11 12 12 5 13
REMARK SMILES IDX 11 14 6 15 7 16 9 17 10 18 8 19 17 22 18 23 19 24 20 25
REMARK SMILES IDX 21 26 26 27 22 28 25 29 23 30 24 31 27 32
REMARK H PARENT 13 9 8 20 8 21 27 33
ROOT
ATOM      1  C   UNL     1      20.107 -24.462   1.170  1.00  0.00    +0.051 C 
ATOM      2  C   UNL     1      19.174 -23.379   0.617  1.00  0.00    +0.144 C 
ATOM      3  N   UNL     1      17.800 -23.834   0.713  1.00  0.00    -0.319 N 
ATOM      4  C   UNL     1      17.096 -23.173   1.688  1.00  0.00    +0.325 C 
ATOM      5  O   UNL     1      15.966 -23.475   2.035  1.00  0.00    -0.248 OA
ATOM      6  N   UNL     1      17.866 -22.170   2.179  1.00  0.00    -0.254 N 
ATOM      7  C   UNL     1      19.112 -22.197   1.617  1.00  0.00    +0.261 C 
ATOM      8  O   UNL     1      20.031 -21.430   1.877  1.00  0.00    -0.271 OA
ATOM      9  H   UNL     1      17.448 -24.700   0.329  1.00  0.00    +0.166 HD
ENDROOT
BRANCH   2  10
ATOM     10  C   UNL     1      19.557 -22.930  -0.792  1.00  0.00    -0.013 A 
ATOM     11  C   UNL     1      18.603 -22.470  -1.720  1.00  0.00    +0.008 A 
ATOM     12  C   UNL     1      20.906 -22.975  -1.203  1.00  0.00    +0.008 A 
ATOM     13  C   UNL     1      18.977 -22.069  -3.006  1.00  0.00    +0.022 A 
ATOM     14  C   UNL     1      21.288 -22.578  -2.486  1.00  0.00    +0.022 A 
ATOM     15  C   UNL     1      20.320 -22.119  -3.379  1.00  0.00    +0.082 A 
BRANCH  15  16
ATOM     16  S   UNL     1      20.810 -21.617  -5.006  1.00  0.00    +0.238 S 
ATOM     17  O   UNL     1      21.875 -20.651  -4.884  1.00  0.00    -0.207 OA
ATOM     18  O   UNL     1      20.917 -22.793  -5.839  1.00  0.00    -0.207 OA
BRANCH  16  19
ATOM     19  N   UNL     1      19.431 -20.811  -5.540  1.00  0.00    -0.225 NA
ATOM     20  H   UNL     1      19.433 -20.628  -6.543  1.00  0.00    +0.137 HD
ATOM     21  H   UNL     1      19.317 -19.954  -4.996  1.00  0.00    +0.137 HD
ENDBRANCH  16  19
ENDBRANCH  15  16
ENDBRANCH   2  10
BRANCH   6  22
ATOM     22  C   UNL     1      17.478 -21.316   3.281  1.00  0.00    +0.211 C 
BRANCH  22  23
ATOM     23  C   UNL     1      16.481 -20.286   2.761  1.00  0.00    +0.186 C 
ATOM     24  O   UNL     1      16.520 -19.852   1.606  1.00  0.00    -0.292 OA
BRANCH  23  25
ATOM     25  C   UNL     1      15.424 -19.768   3.680  1.00  0.00    +0.061 A 
ATOM     26  C   UNL     1      15.119 -20.547   4.811  1.00  0.00    +0.019 A 
ATOM     27  C   UNL     1      14.742 -18.558   3.484  1.00  0.00    +0.129 A 
ATOM     28  C   UNL     1      14.141 -20.133   5.715  1.00  0.00    +0.040 A 
ATOM     29  C   UNL     1      13.762 -18.144   4.389  1.00  0.00    +0.086 A 
ATOM     30  C   UNL     1      13.471 -18.938   5.493  1.00  0.00    +0.126 A 
ATOM     31  F   UNL     1      12.531 -18.537   6.360  1.00  0.00    -0.207 F 
BRANCH  27  32
ATOM     32  O   UNL     1      15.037 -17.753   2.420  1.00  0.00    -0.507 OA
ATOM     33  H   UNL     1      14.258 -17.681   1.840  1.00  0.00    +0.293 HD
ENDBRANCH  27  32
ENDBRANCH  23  25
ENDBRANCH  22  23
ENDBRANCH   6  22
TORSDOF 7
ENDMDL
MODEL 5
REMARK VINA RESULT:    -7.717      3.819      7.787
REMARK INTER + INTRA:         -12.265
REMARK INTER:                 -11.198
REMARK INTRA:                  -1.067
REMARK UNBOUND:                -1.841
REMARK SMILES CC1(c2ccc(S(N)(=O)=O)cc2)NC(=O)N(CC(=O)c2ccc(F)cc2O)C1=O
REMARK SMILES IDX 1 1 2 2 13 3 14 4 15 5 16 6 28 7 29 8 3 10 4 11 12 12 5 13
REMARK SMILES IDX 11 14 6 15 7 16 9 17 10 18 8 19 17 22 18 23 19 24 20 25
REMARK SMILES IDX 21 26 26 27 22 28 25 29 23 30 24 31 27 32
REMARK H PARENT 13 9 8 20 8 21 27 33
ROOT
ATOM      1  C   UNL     1      16.908 -23.549   0.286  1.00  0.00    +0.051 C 
ATOM      2  C   UNL     1      17.595 -22.262  -0.182  1.00  0.00    +0.144 C 
ATOM      3  N   UNL     1      16.613 -21.388  -0.794  1.00  0.00    -0.319 N 
ATOM      4  C   UNL     1      16.320 -20.299  -0.012  1.00  0.00    +0.325 C 
ATOM      5  O   UNL     1      15.432 -19.501  -0.262  1.00  0.00    -0.248 OA
ATOM      6  N   UNL     1      17.160 -20.287   1.053  1.00  0.00    -0.254 N 
ATOM      7  C   UNL     1      17.958 -21.398   1.052  1.00  0.00    +0.261 C 
ATOM      8  O   UNL     1      18.801 -21.674   1.897  1.00  0.00    -0.271 OA
ATOM      9  H   UNL     1      16.001 -21.646  -1.556  1.00  0.00    +0.166 HD
ENDROOT
BRANCH   2  10
ATOM     10  C   UNL     1      18.802 -22.527  -1.081  1.00  0.00    -0.013 A 
ATOM     11  C   UNL     1      19.711 -23.573  -0.830  1.00  0.00    +0.008 A 
ATOM     12  C   UNL     1      19.037 -21.705  -2.203  1.00  0.00    +0.008 A 
ATOM     13  C   UNL     1      20.811 -23.793  -1.665  1.00  0.00    +0.022 A 
ATOM     14  C   UNL     1      20.134 -21.917  -3.041  1.00  0.00    +0.022 A 
ATOM     15  C   UNL     1      21.012 -22.967  -2.771  1.00  0.00    +0.082 A 
BRANCH  15  16
ATOM     16  S   UNL     1      22.402 -23.230  -3.837  1.00  0.00    +0.238 S 
ATOM     17  O   UNL     1      22.440 -22.165  -4.809  1.00  0.00    -0.207 OA
ATOM     18  O   UNL     1      23.544 -23.586  -3.025  1.00  0.00    -0.207 OA
BRANCH  16  19
ATOM     19  N   UNL     1      21.955 -24.647  -4.630  1.00  0.00    -0.225 NA
ATOM     20  H   UNL     1      22.433 -24.779  -5.520  1.00  0.00    +0.137 HD
ATOM     21  H   UNL     1      20.940 -24.660  -4.735  1.00  0.00    +0.137 HD
ENDBRANCH  16  19
ENDBRANCH  15  16
ENDBRANCH   2  10
BRANCH   6  22
ATOM     22  C   UNL     1      17.084 -19.328   2.134  1.00  0.00    +0.211 C 
BRANCH  22  23
ATOM     23  C   UNL     1      16.050 -19.822   3.141  1.00  0.00    +0.186 C 
ATOM     24  O   UNL     1      16.091 -20.954   3.630  1.00  0.00    -0.292 OA
BRANCH  23  25
ATOM     25  C   UNL     1      14.936 -18.914   3.543  1.00  0.00    +0.061 A 
ATOM     26  C   UNL     1      14.555 -17.920   2.623  1.00  0.00    +0.019 A 
ATOM     27  C   UNL     1      14.251 -19.008   4.764  1.00  0.00    +0.129 A 
ATOM     28  C   UNL     1      13.524 -17.029   2.926  1.00  0.00    +0.040 A 
ATOM     29  C   UNL     1      13.220 -18.116   5.067  1.00  0.00    +0.086 A 
ATOM     30  C   UNL     1      12.870 -17.135   4.146  1.00  0.00    +0.126 A 
ATOM     31  F   UNL     1      11.879 -16.282   4.441  1.00  0.00    -0.207 F 
BRANCH  27  32
ATOM     32  O   UNL     1      14.564 -19.985   5.666  1.00  0.00    -0.507 OA
ATOM     33  H   UNL     1      15.523 -20.153   5.644  1.00  0.00    +0.293 HD
ENDBRANCH  27  32
ENDBRANCH  23  25
ENDBRANCH  22  23
ENDBRANCH   6  22
TORSDOF 7
ENDMDL
MODEL 6
REMARK VINA RESULT:    -7.691      2.482      3.215
REMARK INTER + INTRA:         -12.230
REMARK INTER:                 -11.085
REMARK INTRA:                  -1.145
REMARK UNBOUND:                -1.841
REMARK SMILES CC1(c2ccc(S(N)(=O)=O)cc2)NC(=O)N(CC(=O)c2ccc(F)cc2O)C1=O
REMARK SMILES IDX 1 1 2 2 13 3 14 4 15 5 16 6 28 7 29 8 3 10 4 11 12 12 5 13
REMARK SMILES IDX 11 14 6 15 7 16 9 17 10 18 8 19 17 22 18 23 19 24 20 25
REMARK SMILES IDX 21 26 26 27 22 28 25 29 23 30 24 31 27 32
REMARK H PARENT 13 9 8 20 8 21 27 33
ROOT
ATOM      1  C   UNL     1      18.174 -24.007   4.325  1.00  0.00    +0.051 C 
ATOM      2  C   UNL     1      18.042 -22.791   3.399  1.00  0.00    +0.144 C 
ATOM      3  N   UNL     1      19.361 -22.259   3.115  1.00  0.00    -0.319 N 
ATOM      4  C   UNL     1      19.760 -22.511   1.826  1.00  0.00    +0.325 C 
ATOM      5  O   UNL     1      20.879 -22.273   1.401  1.00  0.00    -0.248 OA
ATOM      6  N   UNL     1      18.724 -23.062   1.146  1.00  0.00    -0.254 N 
ATOM      7  C   UNL     1      17.658 -23.270   1.977  1.00  0.00    +0.261 C 
ATOM      8  O   UNL     1      16.587 -23.772   1.656  1.00  0.00    -0.271 OA
ATOM      9  H   UNL     1      20.038 -21.981   3.812  1.00  0.00    +0.166 HD
ENDROOT
BRANCH   2  10
ATOM     10  C   UNL     1      17.077 -21.737   3.940  1.00  0.00    -0.013 A 
ATOM     11  C   UNL     1      16.584 -21.775   5.258  1.00  0.00    +0.008 A 
ATOM     12  C   UNL     1      16.646 -20.685   3.106  1.00  0.00    +0.008 A 
ATOM     13  C   UNL     1      15.697 -20.802   5.728  1.00  0.00    +0.022 A 
ATOM     14  C   UNL     1      15.759 -19.710   3.567  1.00  0.00    +0.022 A 
ATOM     15  C   UNL     1      15.295 -19.770   4.880  1.00  0.00    +0.082 A 
BRANCH  15  16
ATOM     16  S   UNL     1      14.170 -18.530   5.460  1.00  0.00    +0.238 S 
ATOM     17  O   UNL     1      12.848 -19.104   5.514  1.00  0.00    -0.207 OA
ATOM     18  O   UNL     1      14.771 -17.852   6.585  1.00  0.00    -0.207 OA
BRANCH  16  19
ATOM     19  N   UNL     1      14.208 -17.421   4.193  1.00  0.00    -0.225 NA
ATOM     20  H   UNL     1      14.977 -16.755   4.263  1.00  0.00    +0.137 HD
ATOM     21  H   UNL     1      13.302 -16.954   4.136  1.00  0.00    +0.137 HD
ENDBRANCH  16  19
ENDBRANCH  15  16
ENDBRANCH   2  10
BRANCH   6  22
ATOM     22  C   UNL     1      18.809 -23.535  -0.219  1.00  0.00    +0.211 C 
BRANCH  22  23
ATOM     23  C   UNL     1      18.763 -22.326  -1.148  1.00  0.00    +0.186 C 
ATOM     24  O   UNL     1      18.003 -21.372  -0.956  1.00  0.00    -0.292 OA
BRANCH  23  25
ATOM     25  C   UNL     1      19.656 -22.294  -2.344  1.00  0.00    +0.061 A 
ATOM     26  C   UNL     1      20.817 -23.087  -2.299  1.00  0.00    +0.019 A 
ATOM     27  C   UNL     1      19.396 -21.536  -3.495  1.00  0.00    +0.129 A 
ATOM     28  C   UNL     1      21.705 -23.109  -3.375  1.00  0.00    +0.040 A 
ATOM     29  C   UNL     1      20.284 -21.557  -4.572  1.00  0.00    +0.086 A 
ATOM     30  C   UNL     1      21.431 -22.341  -4.499  1.00  0.00    +0.126 A 
ATOM     31  F   UNL     1      22.280 -22.359  -5.535  1.00  0.00    -0.207 F 
BRANCH  27  32
ATOM     32  O   UNL     1      18.259 -20.784  -3.594  1.00  0.00    -0.507 OA
ATOM     33  H   UNL     1      18.447 -19.871  -3.312  1.00  0.00    +0.293 HD
ENDBRANCH  27  32
ENDBRANCH  23  25
ENDBRANCH  22  23
ENDBRANCH   6  22
TORSDOF 7
ENDMDL
MODEL 7
REMARK VINA RESULT:    -7.677      2.623      4.570
REMARK INTER + INTRA:         -12.210
REMARK INTER:                 -11.032
REMARK INTRA:                  -1.178
REMARK UNBOUND:                -1.841
REMARK SMILES CC1(c2ccc(S(N)(=O)=O)cc2)NC(=O)N(CC(=O)c2ccc(F)cc2O)C1=O
REMARK SMILES IDX 1 1 2 2 13 3 14 4 15 5 16 6 28 7 29 8 3 10 4 11 12 12 5 13
REMARK SMILES IDX 11 14 6 15 7 16 9 17 10 18 8 19 17 22 18 23 19 24 20 25
REMARK SMILES IDX 21 26 26 27 22 28 25 29 23 30 24 31 27 32
REMARK H PARENT 13 9 8 20 8 21 27 33
ROOT
ATOM      1  C   UNL     1      17.092 -18.249  -0.514  1.00  0.00    +0.051 C 
ATOM      2  C   UNL     1      16.354 -19.427   0.130  1.00  0.00    +0.144 C 
ATOM      3  N   UNL     1      15.371 -19.945  -0.802  1.00  0.00    -0.319 N 
ATOM      4  C   UNL     1      15.731 -21.163  -1.322  1.00  0.00    +0.325 C 
ATOM      5  O   UNL     1      15.126 -21.727  -2.218  1.00  0.00    -0.248 OA
ATOM      6  N   UNL     1      16.849 -21.596  -0.686  1.00  0.00    -0.254 N 
ATOM      7  C   UNL     1      17.301 -20.652   0.194  1.00  0.00    +0.261 C 
ATOM      8  O   UNL     1      18.300 -20.748   0.896  1.00  0.00    -0.271 OA
ATOM      9  H   UNL     1      14.646 -19.397  -1.245  1.00  0.00    +0.166 HD
ENDROOT
BRANCH   2  10
ATOM     10  C   UNL     1      15.759 -19.080   1.494  1.00  0.00    -0.013 A 
ATOM     11  C   UNL     1      16.102 -19.783   2.665  1.00  0.00    +0.008 A 
ATOM     12  C   UNL     1      14.827 -18.028   1.608  1.00  0.00    +0.008 A 
ATOM     13  C   UNL     1      15.540 -19.451   3.901  1.00  0.00    +0.022 A 
ATOM     14  C   UNL     1      14.260 -17.690   2.838  1.00  0.00    +0.022 A 
ATOM     15  C   UNL     1      14.627 -18.400   3.981  1.00  0.00    +0.082 A 
BRANCH  15  16
ATOM     16  S   UNL     1      13.904 -17.967   5.540  1.00  0.00    +0.238 S 
ATOM     17  O   UNL     1      13.283 -16.671   5.410  1.00  0.00    -0.207 OA
ATOM     18  O   UNL     1      13.202 -19.119   6.058  1.00  0.00    -0.207 OA
BRANCH  16  19
ATOM     19  N   UNL     1      15.270 -17.798   6.510  1.00  0.00    -0.225 NA
ATOM     20  H   UNL     1      16.025 -18.435   6.259  1.00  0.00    +0.137 HD
ATOM     21  H   UNL     1      14.995 -17.899   7.488  1.00  0.00    +0.137 HD
ENDBRANCH  16  19
ENDBRANCH  15  16
ENDBRANCH   2  10
BRANCH   6  22
ATOM     22  C   UNL     1      17.561 -22.807  -1.033  1.00  0.00    +0.211 C 
BRANCH  22  23
ATOM     23  C   UNL     1      17.144 -23.904  -0.059  1.00  0.00    +0.186 C 
ATOM     24  O   UNL     1      16.126 -24.582  -0.223  1.00  0.00    -0.292 OA
BRANCH  23  25
ATOM     25  C   UNL     1      17.985 -24.164   1.147  1.00  0.00    +0.061 A 
ATOM     26  C   UNL     1      19.250 -24.740   0.935  1.00  0.00    +0.019 A 
ATOM     27  C   UNL     1      17.590 -23.855   2.457  1.00  0.00    +0.129 A 
ATOM     28  C   UNL     1      20.094 -25.018   2.011  1.00  0.00    +0.040 A 
ATOM     29  C   UNL     1      18.435 -24.133   3.535  1.00  0.00    +0.086 A 
ATOM     30  C   UNL     1      19.676 -24.714   3.300  1.00  0.00    +0.126 A 
ATOM     31  F   UNL     1      20.483 -24.979   4.335  1.00  0.00    -0.207 F 
BRANCH  27  32
ATOM     32  O   UNL     1      16.386 -23.257   2.702  1.00  0.00    -0.507 OA
ATOM     33  H   UNL     1      16.375 -22.370   2.299  1.00  0.00    +0.293 HD
ENDBRANCH  27  32
ENDBRANCH  23  25
ENDBRANCH  22  23
ENDBRANCH   6  22
TORSDOF 7
ENDMDL
MODEL 8
REMARK VINA RESULT:    -7.659      3.751      7.194
REMARK INTER + INTRA:         -12.186
REMARK INTER:                 -11.346
REMARK INTRA:                  -0.839
REMARK UNBOUND:                -1.841
REMARK SMILES CC1(c2ccc(S(N)(=O)=O)cc2)NC(=O)N(CC(=O)c2ccc(F)cc2O)C1=O
REMARK SMILES IDX 1 1 2 2 13 3 14 4 15 5 16 6 28 7 29 8 3 10 4 11 12 12 5 13
REMARK SMILES IDX 11 14 6 15 7 16 9 17 10 18 8 19 17 22 18 23 19 24 20 25
REMARK SMILES IDX 21 26 26 27 22 28 25 29 23 30 24 31 27 32
REMARK H PARENT 13 9 8 20 8 21 27 33
ROOT
ATOM      1  C   UNL     1      17.935 -22.474  -2.223  1.00  0.00    +0.051 C 
ATOM      2  C   UNL     1      18.422 -21.554  -1.098  1.00  0.00    +0.144 C 
ATOM      3  N   UNL     1      18.642 -20.222  -1.628  1.00  0.00    -0.319 N 
ATOM      4  C   UNL     1      17.690 -19.327  -1.207  1.00  0.00    +0.325 C 
ATOM      5  O   UNL     1      17.597 -18.185  -1.626  1.00  0.00    -0.248 OA
ATOM      6  N   UNL     1      16.898 -19.931  -0.286  1.00  0.00    -0.254 N 
ATOM      7  C   UNL     1      17.242 -21.246  -0.142  1.00  0.00    +0.261 C 
ATOM      8  O   UNL     1      16.694 -22.052   0.601  1.00  0.00    -0.271 OA
ATOM      9  H   UNL     1      19.234 -20.001  -2.417  1.00  0.00    +0.166 HD
ENDROOT
BRANCH   2  10
ATOM     10  C   UNL     1      19.639 -22.111  -0.360  1.00  0.00    -0.013 A 
ATOM     11  C   UNL     1      19.895 -21.821   0.994  1.00  0.00    +0.008 A 
ATOM     12  C   UNL     1      20.554 -22.941  -1.040  1.00  0.00    +0.008 A 
ATOM     13  C   UNL     1      21.018 -22.338   1.646  1.00  0.00    +0.022 A 
ATOM     14  C   UNL     1      21.679 -23.461  -0.397  1.00  0.00    +0.022 A 
ATOM     15  C   UNL     1      21.901 -23.162   0.947  1.00  0.00    +0.082 A 
BRANCH  15  16
ATOM     16  S   UNL     1      23.330 -23.824   1.758  1.00  0.00    +0.238 S 
ATOM     17  O   UNL     1      22.889 -24.714   2.805  1.00  0.00    -0.207 OA
ATOM     18  O   UNL     1      24.289 -24.219   0.752  1.00  0.00    -0.207 OA
BRANCH  16  19
ATOM     19  N   UNL     1      23.977 -22.446   2.480  1.00  0.00    -0.225 NA
ATOM     20  H   UNL     1      24.155 -21.691   1.819  1.00  0.00    +0.137 HD
ATOM     21  H   UNL     1      24.817 -22.708   2.997  1.00  0.00    +0.137 HD
ENDBRANCH  16  19
ENDBRANCH  15  16
ENDBRANCH   2  10
BRANCH   6  22
ATOM     22  C   UNL     1      15.735 -19.313   0.313  1.00  0.00    +0.211 C 
BRANCH  22  23
ATOM     23  C   UNL     1      16.061 -18.988   1.767  1.00  0.00    +0.186 C 
ATOM     24  O   UNL     1      17.172 -19.204   2.260  1.00  0.00    -0.292 OA
BRANCH  23  25
ATOM     25  C   UNL     1      14.999 -18.402   2.637  1.00  0.00    +0.061 A 
ATOM     26  C   UNL     1      14.269 -17.318   2.116  1.00  0.00    +0.019 A 
ATOM     27  C   UNL     1      14.687 -18.877   3.920  1.00  0.00    +0.129 A 
ATOM     28  C   UNL     1      13.263 -16.712   2.869  1.00  0.00    +0.040 A 
ATOM     29  C   UNL     1      13.680 -18.270   4.673  1.00  0.00    +0.086 A 
ATOM     30  C   UNL     1      12.981 -17.193   4.141  1.00  0.00    +0.126 A 
ATOM     31  F   UNL     1      12.015 -16.614   4.866  1.00  0.00    -0.207 F 
BRANCH  27  32
ATOM     32  O   UNL     1      15.345 -19.953   4.445  1.00  0.00    -0.507 OA
ATOM     33  H   UNL     1      14.701 -20.645   4.681  1.00  0.00    +0.293 HD
ENDBRANCH  27  32
ENDBRANCH  23  25
ENDBRANCH  22  23
ENDBRANCH   6  22
TORSDOF 7
ENDMDL
MODEL 9
REMARK VINA RESULT:    -7.564      2.917      4.922
REMARK INTER + INTRA:         -12.058
REMARK INTER:                 -10.835
REMARK INTRA:                  -1.223
REMARK UNBOUND:                -1.841
REMARK SMILES CC1(c2ccc(S(N)(=O)=O)cc2)NC(=O)N(CC(=O)c2ccc(F)cc2O)C1=O
REMARK SMILES IDX 1 1 2 2 13 3 14 4 15 5 16 6 28 7 29 8 3 10 4 11 12 12 5 13
REMARK SMILES IDX 11 14 6 15 7 16 9 17 10 18 8 19 17 22 18 23 19 24 20 25
REMARK SMILES IDX 21 26 26 27 22 28 25 29 23 30 24 31 27 32
REMARK H PARENT 13 9 8 20 8 21 27 33
ROOT
ATOM      1  C   UNL     1      17.504 -18.959  -0.519  1.00  0.00    +0.051 C 
ATOM      2  C   UNL     1      16.924 -20.073   0.360  1.00  0.00    +0.144 C 
ATOM      3  N   UNL     1      16.168 -20.993  -0.468  1.00  0.00    -0.319 N 
ATOM      4  C   UNL     1      16.804 -22.199  -0.628  1.00  0.00    +0.325 C 
ATOM      5  O   UNL     1      16.422 -23.076  -1.384  1.00  0.00    -0.248 OA
ATOM      6  N   UNL     1      17.900 -22.224   0.172  1.00  0.00    -0.254 N 
ATOM      7  C   UNL     1      18.066 -21.022   0.803  1.00  0.00    +0.261 C 
ATOM      8  O   UNL     1      18.977 -20.737   1.571  1.00  0.00    -0.271 OA
ATOM      9  H   UNL     1      15.412 -20.731  -1.086  1.00  0.00    +0.166 HD
ENDROOT
BRANCH   2  10
ATOM     10  C   UNL     1      16.121 -19.537   1.544  1.00  0.00    -0.013 A 
ATOM     11  C   UNL     1      15.324 -18.379   1.449  1.00  0.00    +0.008 A 
ATOM     12  C   UNL     1      16.168 -20.204   2.786  1.00  0.00    +0.008 A 
ATOM     13  C   UNL     1      14.602 -17.905   2.548  1.00  0.00    +0.022 A 
ATOM     14  C   UNL     1      15.451 -19.735   3.889  1.00  0.00    +0.022 A 
ATOM     15  C   UNL     1      14.664 -18.591   3.761  1.00  0.00    +0.082 A 
BRANCH  15  16
ATOM     16  S   UNL     1      13.757 -18.001   5.164  1.00  0.00    +0.238 S 
ATOM     17  O   UNL     1      13.022 -16.825   4.769  1.00  0.00    -0.207 OA
ATOM     18  O   UNL     1      13.131 -19.129   5.815  1.00  0.00    -0.207 OA
BRANCH  16  19
ATOM     19  N   UNL     1      15.001 -17.521   6.193  1.00  0.00    -0.225 NA
ATOM     20  H   UNL     1      14.836 -17.767   7.168  1.00  0.00    +0.137 HD
ATOM     21  H   UNL     1      15.161 -16.520   6.072  1.00  0.00    +0.137 HD
ENDBRANCH  16  19
ENDBRANCH  15  16
ENDBRANCH   2  10
BRANCH   6  22
ATOM     22  C   UNL     1      18.858 -23.308   0.200  1.00  0.00    +0.211 C 
BRANCH  22  23
ATOM     23  C   UNL     1      18.654 -24.094   1.491  1.00  0.00    +0.186 C 
ATOM     24  O   UNL     1      17.553 -24.537   1.830  1.00  0.00    -0.292 OA
BRANCH  23  25
ATOM     25  C   UNL     1      19.822 -24.328   2.392  1.00  0.00    +0.061 A 
ATOM     26  C   UNL     1      20.710 -25.359   2.037  1.00  0.00    +0.019 A 
ATOM     27  C   UNL     1      20.082 -23.576   3.547  1.00  0.00    +0.129 A 
ATOM     28  C   UNL     1      21.823 -25.643   2.829  1.00  0.00    +0.040 A 
ATOM     29  C   UNL     1      21.195 -23.860   4.341  1.00  0.00    +0.086 A 
ATOM     30  C   UNL     1      22.052 -24.893   3.975  1.00  0.00    +0.126 A 
ATOM     31  F   UNL     1      23.119 -25.162   4.738  1.00  0.00    -0.207 F 
BRANCH  27  32
ATOM     32  O   UNL     1      19.266 -22.540   3.905  1.00  0.00    -0.507 OA
ATOM     33  H   UNL     1      18.427 -22.602   3.414  1.00  0.00    +0.293 HD
ENDBRANCH  27  32
ENDBRANCH  23  25
ENDBRANCH  22  23
ENDBRANCH   6  22
TORSDOF 7
ENDMDL
