MODEL 1
REMARK VINA RESULT:    -8.955      0.000      0.000
REMARK INTER + INTRA:         -15.191
REMARK INTER:                 -13.143
REMARK INTRA:                  -2.048
REMARK UNBOUND:                -2.048
REMARK SMILES CC1(c2ccc(S(=O)(=O)NCC(F)(F)F)cc2)NC(=O)N(CC(=O)c2ccc(F)cc2F)C1=O
REMARK SMILES IDX 3 1 4 2 5 3 6 4 16 5 17 6 2 7 18 8 33 9 19 10 21 11 34 12
REMARK SMILES IDX 20 13 1 14 22 16 23 17 24 18 25 19 26 20 31 21 27 22 30 23
REMARK SMILES IDX 28 24 32 25 29 26 7 27 8 28 9 29 10 30 11 32 12 33 13 34
REMARK SMILES IDX 14 35 15 36
REMARK H PARENT 18 15 10 31
ROOT
ATOM      1  C   UNL     1      17.090 -22.447   3.577  1.00  0.00    -0.013 A 
ATOM      2  C   UNL     1      16.588 -21.331   2.880  1.00  0.00    +0.008 A 
ATOM      3  C   UNL     1      15.994 -20.261   3.556  1.00  0.00    +0.022 A 
ATOM      4  C   UNL     1      15.906 -20.289   4.947  1.00  0.00    +0.082 A 
ATOM      5  C   UNL     1      16.388 -21.382   5.665  1.00  0.00    +0.022 A 
ATOM      6  C   UNL     1      16.980 -22.448   4.983  1.00  0.00    +0.008 A 
ENDROOT
BRANCH   1   7
ATOM      7  C   UNL     1      17.779 -23.613   2.865  1.00  0.00    +0.144 C 
ATOM      8  N   UNL     1      16.882 -24.370   2.015  1.00  0.00    -0.319 N 
ATOM      9  C   UNL     1      18.758 -23.094   1.783  1.00  0.00    +0.261 C 
ATOM     10  C   UNL     1      17.160 -24.212   0.679  1.00  0.00    +0.325 C 
ATOM     11  N   UNL     1      18.294 -23.477   0.555  1.00  0.00    -0.254 N 
ATOM     12  O   UNL     1      19.776 -22.442   1.987  1.00  0.00    -0.271 OA
ATOM     13  O   UNL     1      16.481 -24.684  -0.217  1.00  0.00    -0.248 OA
ATOM     14  C   UNL     1      18.499 -24.570   3.817  1.00  0.00    +0.051 C 
ATOM     15  H   UNL     1      16.041 -24.841   2.319  1.00  0.00    +0.166 HD
BRANCH  11  16
ATOM     16  C   UNL     1      18.861 -23.046  -0.702  1.00  0.00    +0.211 C 
BRANCH  16  17
ATOM     17  C   UNL     1      17.786 -22.313  -1.502  1.00  0.00    +0.185 C 
ATOM     18  O   UNL     1      17.408 -22.691  -2.613  1.00  0.00    -0.292 OA
BRANCH  17  19
ATOM     19  C   UNL     1      17.161 -21.089  -0.922  1.00  0.00    +0.055 A 
ATOM     20  C   UNL     1      18.003 -20.104  -0.376  1.00  0.00    +0.018 A 
ATOM     21  C   UNL     1      15.779 -20.883  -0.896  1.00  0.00    +0.136 A 
ATOM     22  C   UNL     1      17.461 -18.941   0.177  1.00  0.00    +0.040 A 
ATOM     23  C   UNL     1      15.235 -19.725  -0.346  1.00  0.00    +0.079 A 
ATOM     24  C   UNL     1      16.083 -18.763   0.185  1.00  0.00    +0.126 A 
ATOM     25  F   UNL     1      14.932 -21.795  -1.389  1.00  0.00    -0.206 F 
ATOM     26  F   UNL     1      15.565 -17.648   0.717  1.00  0.00    -0.207 F 
ENDBRANCH  17  19
ENDBRANCH  16  17
ENDBRANCH  11  16
ENDBRANCH   1   7
BRANCH   4  27
ATOM     27  S   UNL     1      15.186 -18.927   5.818  1.00  0.00    +0.240 S 
ATOM     28  O   UNL     1      16.256 -18.194   6.455  1.00  0.00    -0.207 OA
ATOM     29  O   UNL     1      14.029 -19.389   6.553  1.00  0.00    -0.207 OA
BRANCH  27  30
ATOM     30  N   UNL     1      14.635 -17.964   4.565  1.00  0.00    -0.202 NA
ATOM     31  H   UNL     1      15.306 -17.861   3.802  1.00  0.00    +0.141 HD
BRANCH  30  32
ATOM     32  C   UNL     1      13.758 -16.813   4.900  1.00  0.00    +0.214 C 
BRANCH  32  33
ATOM     33  C   UNL     1      12.335 -16.973   4.367  1.00  0.00    +0.402 C 
ATOM     34  F   UNL     1      11.755 -18.089   4.862  1.00  0.00    -0.170 F 
ATOM     35  F   UNL     1      11.564 -15.919   4.726  1.00  0.00    -0.170 F 
ATOM     36  F   UNL     1      12.311 -17.061   3.019  1.00  0.00    -0.170 F 
ENDBRANCH  32  33
ENDBRANCH  30  32
ENDBRANCH  27  30
ENDBRANCH   4  27
TORSDOF 8
ENDMDL
MODEL 2
REMARK VINA RESULT:    -8.719      2.129      4.147
REMARK INTER + INTRA:         -14.845
REMARK INTER:                 -12.931
REMARK INTRA:                  -1.914
REMARK UNBOUND:                -2.048
REMARK SMILES CC1(c2ccc(S(=O)(=O)NCC(F)(F)F)cc2)NC(=O)N(CC(=O)c2ccc(F)cc2F)C1=O
REMARK SMILES IDX 3 1 4 2 5 3 6 4 16 5 17 6 2 7 18 8 33 9 19 10 21 11 34 12
REMARK SMILES IDX 20 13 1 14 22 16 23 17 24 18 25 19 26 20 31 21 27 22 30 23
REMARK SMILES IDX 28 24 32 25 29 26 7 27 8 28 9 29 10 30 11 32 12 33 13 34
REMARK SMILES IDX 14 35 15 36
REMARK H PARENT 18 15 10 31
ROOT
ATOM      1  C   UNL     1      16.484 -19.578   1.242  1.00  0.00    -0.013 A 
ATOM      2  C   UNL     1      15.416 -18.685   1.454  1.00  0.00    +0.008 A 
ATOM      3  C   UNL     1      14.892 -18.470   2.732  1.00  0.00    +0.022 A 
ATOM      4  C   UNL     1      15.444 -19.141   3.823  1.00  0.00    +0.082 A 
ATOM      5  C   UNL     1      16.497 -20.035   3.646  1.00  0.00    +0.022 A 
ATOM      6  C   UNL     1      17.015 -20.245   2.365  1.00  0.00    +0.008 A 
ENDROOT
BRANCH   1   7
ATOM      7  C   UNL     1      17.100 -19.801  -0.141  1.00  0.00    +0.144 C 
ATOM      8  N   UNL     1      18.499 -20.177  -0.086  1.00  0.00    -0.319 N 
ATOM      9  C   UNL     1      16.531 -21.083  -0.795  1.00  0.00    +0.261 C 
ATOM     10  C   UNL     1      18.713 -21.477  -0.474  1.00  0.00    +0.325 C 
ATOM     11  N   UNL     1      17.542 -21.995  -0.922  1.00  0.00    -0.254 N 
ATOM     12  O   UNL     1      15.367 -21.261  -1.138  1.00  0.00    -0.271 OA
ATOM     13  O   UNL     1      19.798 -22.032  -0.422  1.00  0.00    -0.248 OA
ATOM     14  C   UNL     1      16.936 -18.607  -1.082  1.00  0.00    +0.051 C 
ATOM     15  H   UNL     1      19.239 -19.631   0.334  1.00  0.00    +0.166 HD
BRANCH  11  16
ATOM     16  C   UNL     1      17.359 -23.363  -1.350  1.00  0.00    +0.211 C 
BRANCH  16  17
ATOM     17  C   UNL     1      16.789 -24.171  -0.186  1.00  0.00    +0.185 C 
ATOM     18  O   UNL     1      15.682 -24.713  -0.230  1.00  0.00    -0.292 OA
BRANCH  17  19
ATOM     19  C   UNL     1      17.598 -24.318   1.058  1.00  0.00    +0.055 A 
ATOM     20  C   UNL     1      18.835 -24.982   0.976  1.00  0.00    +0.018 A 
ATOM     21  C   UNL     1      17.179 -23.829   2.298  1.00  0.00    +0.136 A 
ATOM     22  C   UNL     1      19.626 -25.141   2.116  1.00  0.00    +0.040 A 
ATOM     23  C   UNL     1      17.965 -23.985   3.437  1.00  0.00    +0.079 A 
ATOM     24  C   UNL     1      19.184 -24.640   3.335  1.00  0.00    +0.126 A 
ATOM     25  F   UNL     1      16.003 -23.202   2.435  1.00  0.00    -0.206 F 
ATOM     26  F   UNL     1      19.943 -24.795   4.427  1.00  0.00    -0.207 F 
ENDBRANCH  17  19
ENDBRANCH  16  17
ENDBRANCH  11  16
ENDBRANCH   1   7
BRANCH   4  27
ATOM     27  S   UNL     1      14.813 -18.854   5.452  1.00  0.00    +0.240 S 
ATOM     28  O   UNL     1      15.934 -18.828   6.362  1.00  0.00    -0.207 OA
ATOM     29  O   UNL     1      13.663 -19.703   5.673  1.00  0.00    -0.207 OA
BRANCH  27  30
ATOM     30  N   UNL     1      14.260 -17.279   5.339  1.00  0.00    -0.202 NA
ATOM     31  H   UNL     1      14.959 -16.580   5.597  1.00  0.00    +0.141 HD
BRANCH  30  32
ATOM     32  C   UNL     1      12.835 -17.011   5.663  1.00  0.00    +0.214 C 
BRANCH  32  33
ATOM     33  C   UNL     1      11.975 -16.778   4.420  1.00  0.00    +0.402 C 
ATOM     34  F   UNL     1      11.162 -15.711   4.588  1.00  0.00    -0.170 F 
ATOM     35  F   UNL     1      12.750 -16.534   3.337  1.00  0.00    -0.170 F 
ATOM     36  F   UNL     1      11.198 -17.847   4.140  1.00  0.00    -0.170 F 
ENDBRANCH  32  33
ENDBRANCH  30  32
ENDBRANCH  27  30
ENDBRANCH   4  27
TORSDOF 8
ENDMDL
MODEL 3
REMARK VINA RESULT:    -8.589      3.444      4.634
REMARK INTER + INTRA:         -14.654
REMARK INTER:                 -13.438
REMARK INTRA:                  -1.216
REMARK UNBOUND:                -2.048
REMARK SMILES CC1(c2ccc(S(=O)(=O)NCC(F)(F)F)cc2)NC(=O)N(CC(=O)c2ccc(F)cc2F)C1=O
REMARK SMILES IDX 3 1 4 2 5 3 6 4 16 5 17 6 2 7 18 8 33 9 19 10 21 11 34 12
REMARK SMILES IDX 20 13 1 14 22 16 23 17 24 18 25 19 26 20 31 21 27 22 30 23
REMARK SMILES IDX 28 24 32 25 29 26 7 27 8 28 9 29 10 30 11 32 12 33 13 34
REMARK SMILES IDX 14 35 15 36
REMARK H PARENT 18 15 10 31
ROOT
ATOM      1  C   UNL     1      16.877 -22.134   1.312  1.00  0.00    -0.013 A 
ATOM      2  C   UNL     1      16.598 -23.025   2.366  1.00  0.00    +0.008 A 
ATOM      3  C   UNL     1      16.341 -22.560   3.659  1.00  0.00    +0.022 A 
ATOM      4  C   UNL     1      16.348 -21.189   3.911  1.00  0.00    +0.082 A 
ATOM      5  C   UNL     1      16.626 -20.282   2.891  1.00  0.00    +0.022 A 
ATOM      6  C   UNL     1      16.882 -20.754   1.601  1.00  0.00    +0.008 A 
ENDROOT
BRANCH   1   7
ATOM      7  C   UNL     1      17.123 -22.615  -0.120  1.00  0.00    +0.144 C 
ATOM      8  N   UNL     1      17.142 -21.535  -1.087  1.00  0.00    -0.319 N 
ATOM      9  C   UNL     1      18.578 -23.116  -0.289  1.00  0.00    +0.261 C 
ATOM     10  C   UNL     1      18.392 -21.320  -1.615  1.00  0.00    +0.325 C 
ATOM     11  N   UNL     1      19.230 -22.283  -1.156  1.00  0.00    -0.254 N 
ATOM     12  O   UNL     1      19.073 -24.092   0.266  1.00  0.00    -0.271 OA
ATOM     13  O   UNL     1      18.659 -20.407  -2.378  1.00  0.00    -0.248 OA
ATOM     14  C   UNL     1      16.135 -23.687  -0.581  1.00  0.00    +0.051 C 
ATOM     15  H   UNL     1      16.385 -20.889  -1.262  1.00  0.00    +0.166 HD
BRANCH  11  16
ATOM     16  C   UNL     1      20.645 -22.345  -1.440  1.00  0.00    +0.211 C 
BRANCH  16  17
ATOM     17  C   UNL     1      20.867 -23.270  -2.636  1.00  0.00    +0.185 C 
ATOM     18  O   UNL     1      21.004 -24.489  -2.518  1.00  0.00    -0.292 OA
BRANCH  17  19
ATOM     19  C   UNL     1      20.922 -22.682  -4.005  1.00  0.00    +0.055 A 
ATOM     20  C   UNL     1      20.205 -23.318  -5.034  1.00  0.00    +0.018 A 
ATOM     21  C   UNL     1      21.657 -21.533  -4.309  1.00  0.00    +0.136 A 
ATOM     22  C   UNL     1      20.227 -22.801  -6.332  1.00  0.00    +0.040 A 
ATOM     23  C   UNL     1      21.681 -21.014  -5.601  1.00  0.00    +0.079 A 
ATOM     24  C   UNL     1      20.963 -21.654  -6.602  1.00  0.00    +0.126 A 
ATOM     25  F   UNL     1      22.369 -20.896  -3.370  1.00  0.00    -0.206 F 
ATOM     26  F   UNL     1      20.984 -21.161  -7.846  1.00  0.00    -0.207 F 
ENDBRANCH  17  19
ENDBRANCH  16  17
ENDBRANCH  11  16
ENDBRANCH   1   7
BRANCH   4  27
ATOM     27  S   UNL     1      15.992 -20.584   5.536  1.00  0.00    +0.240 S 
ATOM     28  O   UNL     1      17.176 -20.766   6.345  1.00  0.00    -0.207 OA
ATOM     29  O   UNL     1      14.695 -21.071   5.953  1.00  0.00    -0.207 OA
BRANCH  27  30
ATOM     30  N   UNL     1      15.850 -18.937   5.272  1.00  0.00    -0.202 NA
ATOM     31  H   UNL     1      16.682 -18.516   4.855  1.00  0.00    +0.141 HD
BRANCH  30  32
ATOM     32  C   UNL     1      15.060 -18.137   6.243  1.00  0.00    +0.214 C 
BRANCH  32  33
ATOM     33  C   UNL     1      13.705 -17.696   5.688  1.00  0.00    +0.402 C 
ATOM     34  F   UNL     1      13.462 -18.272   4.490  1.00  0.00    -0.170 F 
ATOM     35  F   UNL     1      12.702 -18.054   6.525  1.00  0.00    -0.170 F 
ATOM     36  F   UNL     1      13.645 -16.357   5.521  1.00  0.00    -0.170 F 
ENDBRANCH  32  33
ENDBRANCH  30  32
ENDBRANCH  27  30
ENDBRANCH   4  27
TORSDOF 8
ENDMDL
MODEL 4
REMARK VINA RESULT:    -8.551      4.278      8.689
REMARK INTER + INTRA:         -14.598
REMARK INTER:                 -13.381
REMARK INTRA:                  -1.217
REMARK UNBOUND:                -2.048
REMARK SMILES CC1(c2ccc(S(=O)(=O)NCC(F)(F)F)cc2)NC(=O)N(CC(=O)c2ccc(F)cc2F)C1=O
REMARK SMILES IDX 3 1 4 2 5 3 6 4 16 5 17 6 2 7 18 8 33 9 19 10 21 11 34 12
REMARK SMILES IDX 20 13 1 14 22 16 23 17 24 18 25 19 26 20 31 21 27 22 30 23
REMARK SMILES IDX 28 24 32 25 29 26 7 27 8 28 9 29 10 30 11 32 12 33 13 34
REMARK SMILES IDX 14 35 15 36
REMARK H PARENT 18 15 10 31
ROOT
ATOM      1  C   UNL     1      18.077 -22.974  -0.189  1.00  0.00    -0.013 A 
ATOM      2  C   UNL     1      17.590 -22.509  -1.426  1.00  0.00    +0.008 A 
ATOM      3  C   UNL     1      18.456 -22.231  -2.487  1.00  0.00    +0.022 A 
ATOM      4  C   UNL     1      19.827 -22.429  -2.327  1.00  0.00    +0.082 A 
ATOM      5  C   UNL     1      20.341 -22.882  -1.114  1.00  0.00    +0.022 A 
ATOM      6  C   UNL     1      19.469 -23.158  -0.057  1.00  0.00    +0.008 A 
ENDROOT
BRANCH   1   7
ATOM      7  C   UNL     1      17.148 -23.323   0.976  1.00  0.00    +0.144 C 
ATOM      8  N   UNL     1      17.705 -24.319   1.869  1.00  0.00    -0.319 N 
ATOM      9  C   UNL     1      17.042 -22.140   1.968  1.00  0.00    +0.261 C 
ATOM     10  C   UNL     1      18.023 -23.805   3.102  1.00  0.00    +0.325 C 
ATOM     11  N   UNL     1      17.598 -22.517   3.159  1.00  0.00    -0.254 N 
ATOM     12  O   UNL     1      16.551 -21.042   1.730  1.00  0.00    -0.271 OA
ATOM     13  O   UNL     1      18.585 -24.439   3.979  1.00  0.00    -0.248 OA
ATOM     14  C   UNL     1      15.754 -23.768   0.531  1.00  0.00    +0.051 C 
ATOM     15  H   UNL     1      17.990 -25.253   1.606  1.00  0.00    +0.166 HD
BRANCH  11  16
ATOM     16  C   UNL     1      17.819 -21.628   4.275  1.00  0.00    +0.211 C 
BRANCH  16  17
ATOM     17  C   UNL     1      16.670 -21.789   5.269  1.00  0.00    +0.185 C 
ATOM     18  O   UNL     1      16.486 -22.825   5.912  1.00  0.00    -0.292 OA
BRANCH  17  19
ATOM     19  C   UNL     1      15.728 -20.652   5.477  1.00  0.00    +0.055 A 
ATOM     20  C   UNL     1      16.232 -19.459   6.024  1.00  0.00    +0.018 A 
ATOM     21  C   UNL     1      14.370 -20.724   5.157  1.00  0.00    +0.136 A 
ATOM     22  C   UNL     1      15.385 -18.368   6.235  1.00  0.00    +0.040 A 
ATOM     23  C   UNL     1      13.522 -19.639   5.366  1.00  0.00    +0.079 A 
ATOM     24  C   UNL     1      14.040 -18.468   5.903  1.00  0.00    +0.126 A 
ATOM     25  F   UNL     1      13.834 -21.841   4.648  1.00  0.00    -0.206 F 
ATOM     26  F   UNL     1      13.230 -17.422   6.108  1.00  0.00    -0.207 F 
ENDBRANCH  17  19
ENDBRANCH  16  17
ENDBRANCH  11  16
ENDBRANCH   1   7
BRANCH   4  27
ATOM     27  S   UNL     1      20.933 -22.112  -3.673  1.00  0.00    +0.240 S 
ATOM     28  O   UNL     1      21.746 -23.291  -3.865  1.00  0.00    -0.207 OA
ATOM     29  O   UNL     1      21.513 -20.796  -3.513  1.00  0.00    -0.207 OA
BRANCH  27  30
ATOM     30  N   UNL     1      19.884 -22.045  -4.976  1.00  0.00    -0.202 NA
ATOM     31  H   UNL     1      19.346 -22.902  -5.113  1.00  0.00    +0.141 HD
BRANCH  30  32
ATOM     32  C   UNL     1      20.303 -21.270  -6.173  1.00  0.00    +0.214 C 
BRANCH  32  33
ATOM     33  C   UNL     1      20.813 -22.157  -7.308  1.00  0.00    +0.402 C 
ATOM     34  F   UNL     1      21.977 -22.755  -6.970  1.00  0.00    -0.170 F 
ATOM     35  F   UNL     1      19.920 -23.135  -7.594  1.00  0.00    -0.170 F 
ATOM     36  F   UNL     1      21.027 -21.451  -8.439  1.00  0.00    -0.170 F 
ENDBRANCH  32  33
ENDBRANCH  30  32
ENDBRANCH  27  30
ENDBRANCH   4  27
TORSDOF 8
ENDMDL
MODEL 5
REMARK VINA RESULT:    -8.484      4.483      8.806
REMARK INTER + INTRA:         -14.500
REMARK INTER:                 -13.714
REMARK INTRA:                  -0.786
REMARK UNBOUND:                -2.048
REMARK SMILES CC1(c2ccc(S(=O)(=O)NCC(F)(F)F)cc2)NC(=O)N(CC(=O)c2ccc(F)cc2F)C1=O
REMARK SMILES IDX 3 1 4 2 5 3 6 4 16 5 17 6 2 7 18 8 33 9 19 10 21 11 34 12
REMARK SMILES IDX 20 13 1 14 22 16 23 17 24 18 25 19 26 20 31 21 27 22 30 23
REMARK SMILES IDX 28 24 32 25 29 26 7 27 8 28 9 29 10 30 11 32 12 33 13 34
REMARK SMILES IDX 14 35 15 36
REMARK H PARENT 18 15 10 31
ROOT
ATOM      1  C   UNL     1      18.395 -22.441  -0.743  1.00  0.00    -0.013 A 
ATOM      2  C   UNL     1      17.935 -21.823  -1.922  1.00  0.00    +0.008 A 
ATOM      3  C   UNL     1      18.798 -21.572  -2.993  1.00  0.00    +0.022 A 
ATOM      4  C   UNL     1      20.136 -21.952  -2.902  1.00  0.00    +0.082 A 
ATOM      5  C   UNL     1      20.623 -22.561  -1.747  1.00  0.00    +0.022 A 
ATOM      6  C   UNL     1      19.755 -22.808  -0.680  1.00  0.00    +0.008 A 
ENDROOT
BRANCH   1   7
ATOM      7  C   UNL     1      17.463 -22.762   0.428  1.00  0.00    +0.144 C 
ATOM      8  N   UNL     1      18.174 -23.150   1.630  1.00  0.00    -0.319 N 
ATOM      9  C   UNL     1      16.781 -21.476   0.955  1.00  0.00    +0.261 C 
ATOM     10  C   UNL     1      18.076 -22.212   2.629  1.00  0.00    +0.325 C 
ATOM     11  N   UNL     1      17.222 -21.237   2.227  1.00  0.00    -0.254 N 
ATOM     12  O   UNL     1      15.983 -20.779   0.337  1.00  0.00    -0.271 OA
ATOM     13  O   UNL     1      18.667 -22.288   3.693  1.00  0.00    -0.248 OA
ATOM     14  C   UNL     1      16.413 -23.823   0.098  1.00  0.00    +0.051 C 
ATOM     15  H   UNL     1      18.810 -23.932   1.711  1.00  0.00    +0.166 HD
BRANCH  11  16
ATOM     16  C   UNL     1      16.922 -20.044   2.985  1.00  0.00    +0.211 C 
BRANCH  16  17
ATOM     17  C   UNL     1      15.713 -20.318   3.877  1.00  0.00    +0.185 C 
ATOM     18  O   UNL     1      15.461 -21.436   4.332  1.00  0.00    -0.292 OA
BRANCH  17  19
ATOM     19  C   UNL     1      14.794 -19.194   4.217  1.00  0.00    +0.055 A 
ATOM     20  C   UNL     1      14.316 -19.098   5.535  1.00  0.00    +0.018 A 
ATOM     21  C   UNL     1      14.387 -18.238   3.283  1.00  0.00    +0.136 A 
ATOM     22  C   UNL     1      13.454 -18.060   5.899  1.00  0.00    +0.040 A 
ATOM     23  C   UNL     1      13.528 -17.202   3.641  1.00  0.00    +0.079 A 
ATOM     24  C   UNL     1      13.070 -17.122   4.948  1.00  0.00    +0.126 A 
ATOM     25  F   UNL     1      14.801 -18.290   2.010  1.00  0.00    -0.206 F 
ATOM     26  F   UNL     1      12.243 -16.129   5.298  1.00  0.00    -0.207 F 
ENDBRANCH  17  19
ENDBRANCH  16  17
ENDBRANCH  11  16
ENDBRANCH   1   7
BRANCH   4  27
ATOM     27  S   UNL     1      21.233 -21.671  -4.263  1.00  0.00    +0.240 S 
ATOM     28  O   UNL     1      21.854 -22.931  -4.599  1.00  0.00    -0.207 OA
ATOM     29  O   UNL     1      22.008 -20.476  -4.011  1.00  0.00    -0.207 OA
BRANCH  27  30
ATOM     30  N   UNL     1      20.165 -21.325  -5.504  1.00  0.00    -0.202 NA
ATOM     31  H   UNL     1      19.190 -21.274  -5.204  1.00  0.00    +0.141 HD
BRANCH  30  32
ATOM     32  C   UNL     1      20.463 -21.865  -6.856  1.00  0.00    +0.214 C 
BRANCH  32  33
ATOM     33  C   UNL     1      21.024 -20.809  -7.809  1.00  0.00    +0.402 C 
ATOM     34  F   UNL     1      20.050 -19.970  -8.228  1.00  0.00    -0.170 F 
ATOM     35  F   UNL     1      21.971 -20.060  -7.195  1.00  0.00    -0.170 F 
ATOM     36  F   UNL     1      21.585 -21.368  -8.903  1.00  0.00    -0.170 F 
ENDBRANCH  32  33
ENDBRANCH  30  32
ENDBRANCH  27  30
ENDBRANCH   4  27
TORSDOF 8
ENDMDL
MODEL 6
REMARK VINA RESULT:    -8.390      2.898      4.922
REMARK INTER + INTRA:         -14.363
REMARK INTER:                 -12.367
REMARK INTRA:                  -1.996
REMARK UNBOUND:                -2.048
REMARK SMILES CC1(c2ccc(S(=O)(=O)NCC(F)(F)F)cc2)NC(=O)N(CC(=O)c2ccc(F)cc2F)C1=O
REMARK SMILES IDX 3 1 4 2 5 3 6 4 16 5 17 6 2 7 18 8 33 9 19 10 21 11 34 12
REMARK SMILES IDX 20 13 1 14 22 16 23 17 24 18 25 19 26 20 31 21 27 22 30 23
REMARK SMILES IDX 28 24 32 25 29 26 7 27 8 28 9 29 10 30 11 32 12 33 13 34
REMARK SMILES IDX 14 35 15 36
REMARK H PARENT 18 15 10 31
ROOT
ATOM      1  C   UNL     1      16.185 -19.172   1.135  1.00  0.00    -0.013 A 
ATOM      2  C   UNL     1      15.240 -18.132   1.242  1.00  0.00    +0.008 A 
ATOM      3  C   UNL     1      14.585 -17.869   2.449  1.00  0.00    +0.022 A 
ATOM      4  C   UNL     1      14.880 -18.639   3.573  1.00  0.00    +0.082 A 
ATOM      5  C   UNL     1      15.804 -19.679   3.498  1.00  0.00    +0.022 A 
ATOM      6  C   UNL     1      16.455 -19.936   2.289  1.00  0.00    +0.008 A 
ENDROOT
BRANCH   1   7
ATOM      7  C   UNL     1      16.943 -19.455  -0.164  1.00  0.00    +0.144 C 
ATOM      8  N   UNL     1      18.291 -19.940   0.060  1.00  0.00    -0.319 N 
ATOM      9  C   UNL     1      16.357 -20.694  -0.883  1.00  0.00    +0.261 C 
ATOM     10  C   UNL     1      18.447 -21.256  -0.301  1.00  0.00    +0.325 C 
ATOM     11  N   UNL     1      17.300 -21.684  -0.887  1.00  0.00    -0.254 N 
ATOM     12  O   UNL     1      15.232 -20.782  -1.364  1.00  0.00    -0.271 OA
ATOM     13  O   UNL     1      19.469 -21.894  -0.119  1.00  0.00    -0.248 OA
ATOM     14  C   UNL     1      16.989 -18.260  -1.117  1.00  0.00    +0.051 C 
ATOM     15  H   UNL     1      19.016 -19.450   0.566  1.00  0.00    +0.166 HD
BRANCH  11  16
ATOM     16  C   UNL     1      17.062 -23.037  -1.335  1.00  0.00    +0.211 C 
BRANCH  16  17
ATOM     17  C   UNL     1      16.411 -23.824  -0.200  1.00  0.00    +0.185 C 
ATOM     18  O   UNL     1      15.261 -24.264  -0.268  1.00  0.00    -0.292 OA
BRANCH  17  19
ATOM     19  C   UNL     1      17.191 -24.078   1.045  1.00  0.00    +0.055 A 
ATOM     20  C   UNL     1      16.829 -23.384   2.213  1.00  0.00    +0.018 A 
ATOM     21  C   UNL     1      18.265 -24.969   1.099  1.00  0.00    +0.136 A 
ATOM     22  C   UNL     1      17.531 -23.591   3.403  1.00  0.00    +0.040 A 
ATOM     23  C   UNL     1      18.968 -25.179   2.283  1.00  0.00    +0.079 A 
ATOM     24  C   UNL     1      18.593 -24.487   3.426  1.00  0.00    +0.126 A 
ATOM     25  F   UNL     1      18.662 -25.645   0.013  1.00  0.00    -0.206 F 
ATOM     26  F   UNL     1      19.266 -24.683   4.567  1.00  0.00    -0.207 F 
ENDBRANCH  17  19
ENDBRANCH  16  17
ENDBRANCH  11  16
ENDBRANCH   1   7
BRANCH   4  27
ATOM     27  S   UNL     1      14.082 -18.297   5.116  1.00  0.00    +0.240 S 
ATOM     28  O   UNL     1      12.754 -17.805   4.829  1.00  0.00    -0.207 OA
ATOM     29  O   UNL     1      14.997 -17.578   5.976  1.00  0.00    -0.207 OA
BRANCH  27  30
ATOM     30  N   UNL     1      13.890 -19.831   5.757  1.00  0.00    -0.202 NA
ATOM     31  H   UNL     1      12.930 -20.040   6.036  1.00  0.00    +0.141 HD
BRANCH  30  32
ATOM     32  C   UNL     1      15.003 -20.400   6.559  1.00  0.00    +0.214 C 
BRANCH  32  33
ATOM     33  C   UNL     1      15.298 -21.860   6.218  1.00  0.00    +0.402 C 
ATOM     34  F   UNL     1      14.565 -22.267   5.157  1.00  0.00    -0.170 F 
ATOM     35  F   UNL     1      16.603 -22.027   5.899  1.00  0.00    -0.170 F 
ATOM     36  F   UNL     1      15.017 -22.684   7.251  1.00  0.00    -0.170 F 
ENDBRANCH  32  33
ENDBRANCH  30  32
ENDBRANCH  27  30
ENDBRANCH   4  27
TORSDOF 8
ENDMDL
MODEL 7
REMARK VINA RESULT:    -8.294      1.859      2.192
REMARK INTER + INTRA:         -14.222
REMARK INTER:                 -12.070
REMARK INTRA:                  -2.152
REMARK UNBOUND:                -2.048
REMARK SMILES CC1(c2ccc(S(=O)(=O)NCC(F)(F)F)cc2)NC(=O)N(CC(=O)c2ccc(F)cc2F)C1=O
REMARK SMILES IDX 3 1 4 2 5 3 6 4 16 5 17 6 2 7 18 8 33 9 19 10 21 11 34 12
REMARK SMILES IDX 20 13 1 14 22 16 23 17 24 18 25 19 26 20 31 21 27 22 30 23
REMARK SMILES IDX 28 24 32 25 29 26 7 27 8 28 9 29 10 30 11 32 12 33 13 34
REMARK SMILES IDX 14 35 15 36
REMARK H PARENT 18 15 10 31
ROOT
ATOM      1  C   UNL     1      18.740 -22.957   3.162  1.00  0.00    -0.013 A 
ATOM      2  C   UNL     1      17.984 -21.984   2.480  1.00  0.00    +0.008 A 
ATOM      3  C   UNL     1      16.875 -21.377   3.078  1.00  0.00    +0.022 A 
ATOM      4  C   UNL     1      16.517 -21.728   4.378  1.00  0.00    +0.082 A 
ATOM      5  C   UNL     1      17.241 -22.691   5.078  1.00  0.00    +0.022 A 
ATOM      6  C   UNL     1      18.347 -23.294   4.474  1.00  0.00    +0.008 A 
ENDROOT
BRANCH   1   7
ATOM      7  C   UNL     1      19.980 -23.608   2.546  1.00  0.00    +0.144 C 
ATOM      8  N   UNL     1      19.665 -24.745   1.704  1.00  0.00    -0.319 N 
ATOM      9  C   UNL     1      20.612 -22.684   1.477  1.00  0.00    +0.261 C 
ATOM     10  C   UNL     1      19.905 -24.502   0.374  1.00  0.00    +0.325 C 
ATOM     11  N   UNL     1      20.495 -23.286   0.254  1.00  0.00    -0.254 N 
ATOM     12  O   UNL     1      21.125 -21.590   1.684  1.00  0.00    -0.271 OA
ATOM     13  O   UNL     1      19.630 -25.283  -0.521  1.00  0.00    -0.248 OA
ATOM     14  C   UNL     1      21.030 -24.021   3.579  1.00  0.00    +0.051 C 
ATOM     15  H   UNL     1      19.175 -25.579   2.000  1.00  0.00    +0.166 HD
BRANCH  11  16
ATOM     16  C   UNL     1      20.834 -22.656  -1.001  1.00  0.00    +0.211 C 
BRANCH  16  17
ATOM     17  C   UNL     1      19.567 -22.527  -1.845  1.00  0.00    +0.185 C 
ATOM     18  O   UNL     1      19.438 -23.075  -2.941  1.00  0.00    -0.292 OA
BRANCH  17  19
ATOM     19  C   UNL     1      18.434 -21.706  -1.329  1.00  0.00    +0.055 A 
ATOM     20  C   UNL     1      18.661 -20.344  -1.067  1.00  0.00    +0.018 A 
ATOM     21  C   UNL     1      17.162 -22.233  -1.090  1.00  0.00    +0.136 A 
ATOM     22  C   UNL     1      17.628 -19.537  -0.583  1.00  0.00    +0.040 A 
ATOM     23  C   UNL     1      16.130 -21.433  -0.608  1.00  0.00    +0.079 A 
ATOM     24  C   UNL     1      16.373 -20.089  -0.360  1.00  0.00    +0.126 A 
ATOM     25  F   UNL     1      16.895 -23.528  -1.308  1.00  0.00    -0.206 F 
ATOM     26  F   UNL     1      15.384 -19.315   0.105  1.00  0.00    -0.207 F 
ENDBRANCH  17  19
ENDBRANCH  16  17
ENDBRANCH  11  16
ENDBRANCH   1   7
BRANCH   4  27
ATOM     27  S   UNL     1      15.135 -20.943   5.160  1.00  0.00    +0.240 S 
ATOM     28  O   UNL     1      15.438 -20.814   6.567  1.00  0.00    -0.207 OA
ATOM     29  O   UNL     1      13.912 -21.556   4.691  1.00  0.00    -0.207 OA
BRANCH  27  30
ATOM     30  N   UNL     1      15.203 -19.399   4.518  1.00  0.00    -0.202 NA
ATOM     31  H   UNL     1      16.091 -18.924   4.688  1.00  0.00    +0.141 HD
BRANCH  30  32
ATOM     32  C   UNL     1      13.957 -18.591   4.504  1.00  0.00    +0.214 C 
BRANCH  32  33
ATOM     33  C   UNL     1      13.724 -17.833   5.811  1.00  0.00    +0.402 C 
ATOM     34  F   UNL     1      14.860 -17.767   6.542  1.00  0.00    -0.170 F 
ATOM     35  F   UNL     1      13.322 -16.563   5.567  1.00  0.00    -0.170 F 
ATOM     36  F   UNL     1      12.779 -18.425   6.573  1.00  0.00    -0.170 F 
ENDBRANCH  32  33
ENDBRANCH  30  32
ENDBRANCH  27  30
ENDBRANCH   4  27
TORSDOF 8
ENDMDL
MODEL 8
REMARK VINA RESULT:    -8.184      2.549      4.310
REMARK INTER + INTRA:         -14.059
REMARK INTER:                 -11.918
REMARK INTRA:                  -2.141
REMARK UNBOUND:                -2.048
REMARK SMILES CC1(c2ccc(S(=O)(=O)NCC(F)(F)F)cc2)NC(=O)N(CC(=O)c2ccc(F)cc2F)C1=O
REMARK SMILES IDX 3 1 4 2 5 3 6 4 16 5 17 6 2 7 18 8 33 9 19 10 21 11 34 12
REMARK SMILES IDX 20 13 1 14 22 16 23 17 24 18 25 19 26 20 31 21 27 22 30 23
REMARK SMILES IDX 28 24 32 25 29 26 7 27 8 28 9 29 10 30 11 32 12 33 13 34
REMARK SMILES IDX 14 35 15 36
REMARK H PARENT 18 15 10 31
ROOT
ATOM      1  C   UNL     1      16.560 -21.163   0.885  1.00  0.00    -0.013 A 
ATOM      2  C   UNL     1      16.521 -19.857   1.413  1.00  0.00    +0.008 A 
ATOM      3  C   UNL     1      16.403 -19.634   2.788  1.00  0.00    +0.022 A 
ATOM      4  C   UNL     1      16.336 -20.722   3.658  1.00  0.00    +0.082 A 
ATOM      5  C   UNL     1      16.366 -22.026   3.166  1.00  0.00    +0.022 A 
ATOM      6  C   UNL     1      16.484 -22.241   1.791  1.00  0.00    +0.008 A 
ENDROOT
BRANCH   1   7
ATOM      7  C   UNL     1      16.728 -21.434  -0.612  1.00  0.00    +0.144 C 
ATOM      8  N   UNL     1      17.690 -20.553  -1.245  1.00  0.00    -0.319 N 
ATOM      9  C   UNL     1      17.446 -22.786  -0.848  1.00  0.00    +0.261 C 
ATOM     10  C   UNL     1      18.830 -21.210  -1.639  1.00  0.00    +0.325 C 
ATOM     11  N   UNL     1      18.661 -22.540  -1.425  1.00  0.00    -0.254 N 
ATOM     12  O   UNL     1      17.008 -23.894  -0.560  1.00  0.00    -0.271 OA
ATOM     13  O   UNL     1      19.806 -20.653  -2.111  1.00  0.00    -0.248 OA
ATOM     14  C   UNL     1      15.413 -21.389  -1.391  1.00  0.00    +0.051 C 
ATOM     15  H   UNL     1      17.636 -19.544  -1.269  1.00  0.00    +0.166 HD
BRANCH  11  16
ATOM     16  C   UNL     1      19.675 -23.544  -1.654  1.00  0.00    +0.211 C 
BRANCH  16  17
ATOM     17  C   UNL     1      20.722 -23.447  -0.546  1.00  0.00    +0.185 C 
ATOM     18  O   UNL     1      21.915 -23.233  -0.775  1.00  0.00    -0.292 OA
BRANCH  17  19
ATOM     19  C   UNL     1      20.295 -23.615   0.872  1.00  0.00    +0.055 A 
ATOM     20  C   UNL     1      19.913 -24.896   1.307  1.00  0.00    +0.018 A 
ATOM     21  C   UNL     1      20.252 -22.555   1.782  1.00  0.00    +0.136 A 
ATOM     22  C   UNL     1      19.506 -25.100   2.628  1.00  0.00    +0.040 A 
ATOM     23  C   UNL     1      19.847 -22.754   3.100  1.00  0.00    +0.079 A 
ATOM     24  C   UNL     1      19.479 -24.028   3.511  1.00  0.00    +0.126 A 
ATOM     25  F   UNL     1      20.591 -21.312   1.417  1.00  0.00    -0.206 F 
ATOM     26  F   UNL     1      19.087 -24.224   4.776  1.00  0.00    -0.207 F 
ENDBRANCH  17  19
ENDBRANCH  16  17
ENDBRANCH  11  16
ENDBRANCH   1   7
BRANCH   4  27
ATOM     27  S   UNL     1      16.218 -20.455   5.404  1.00  0.00    +0.240 S 
ATOM     28  O   UNL     1      17.457 -20.895   6.003  1.00  0.00    -0.207 OA
ATOM     29  O   UNL     1      14.931 -20.920   5.872  1.00  0.00    -0.207 OA
BRANCH  27  30
ATOM     30  N   UNL     1      16.215 -18.784   5.501  1.00  0.00    -0.202 NA
ATOM     31  H   UNL     1      17.147 -18.369   5.459  1.00  0.00    +0.141 HD
BRANCH  30  32
ATOM     32  C   UNL     1      15.187 -18.134   6.354  1.00  0.00    +0.214 C 
BRANCH  32  33
ATOM     33  C   UNL     1      13.930 -17.741   5.578  1.00  0.00    +0.402 C 
ATOM     34  F   UNL     1      13.798 -16.396   5.519  1.00  0.00    -0.170 F 
ATOM     35  F   UNL     1      13.986 -18.201   4.305  1.00  0.00    -0.170 F 
ATOM     36  F   UNL     1      12.812 -18.239   6.148  1.00  0.00    -0.170 F 
ENDBRANCH  32  33
ENDBRANCH  30  32
ENDBRANCH  27  30
ENDBRANCH   4  27
TORSDOF 8
ENDMDL
MODEL 9
REMARK VINA RESULT:    -8.055      2.946      4.771
REMARK INTER + INTRA:         -13.871
REMARK INTER:                 -12.286
REMARK INTRA:                  -1.585
REMARK UNBOUND:                -2.048
REMARK SMILES CC1(c2ccc(S(=O)(=O)NCC(F)(F)F)cc2)NC(=O)N(CC(=O)c2ccc(F)cc2F)C1=O
REMARK SMILES IDX 3 1 4 2 5 3 6 4 16 5 17 6 2 7 18 8 33 9 19 10 21 11 34 12
REMARK SMILES IDX 20 13 1 14 22 16 23 17 24 18 25 19 26 20 31 21 27 22 30 23
REMARK SMILES IDX 28 24 32 25 29 26 7 27 8 28 9 29 10 30 11 32 12 33 13 34
REMARK SMILES IDX 14 35 15 36
REMARK H PARENT 18 15 10 31
ROOT
ATOM      1  C   UNL     1      16.965 -21.088   1.396  1.00  0.00    -0.013 A 
ATOM      2  C   UNL     1      16.495 -19.768   1.539  1.00  0.00    +0.008 A 
ATOM      3  C   UNL     1      16.034 -19.291   2.770  1.00  0.00    +0.022 A 
ATOM      4  C   UNL     1      16.051 -20.132   3.882  1.00  0.00    +0.082 A 
ATOM      5  C   UNL     1      16.504 -21.445   3.772  1.00  0.00    +0.022 A 
ATOM      6  C   UNL     1      16.963 -21.914   2.539  1.00  0.00    +0.008 A 
ENDROOT
BRANCH   1   7
ATOM      7  C   UNL     1      17.511 -21.621   0.069  1.00  0.00    +0.144 C 
ATOM      8  N   UNL     1      18.947 -21.475  -0.054  1.00  0.00    -0.319 N 
ATOM      9  C   UNL     1      17.419 -23.166   0.019  1.00  0.00    +0.261 C 
ATOM     10  C   UNL     1      19.607 -22.680  -0.022  1.00  0.00    +0.325 C 
ATOM     11  N   UNL     1      18.687 -23.678  -0.009  1.00  0.00    -0.254 N 
ATOM     12  O   UNL     1      16.387 -23.826   0.013  1.00  0.00    -0.271 OA
ATOM     13  O   UNL     1      20.821 -22.790  -0.021  1.00  0.00    -0.248 OA
ATOM     14  C   UNL     1      16.834 -21.009  -1.158  1.00  0.00    +0.051 C 
ATOM     15  H   UNL     1      19.456 -20.602  -0.010  1.00  0.00    +0.166 HD
BRANCH  11  16
ATOM     16  C   UNL     1      19.002 -25.084   0.095  1.00  0.00    +0.211 C 
BRANCH  16  17
ATOM     17  C   UNL     1      18.936 -25.496   1.564  1.00  0.00    +0.185 C 
ATOM     18  O   UNL     1      17.986 -26.124   2.037  1.00  0.00    -0.292 OA
BRANCH  17  19
ATOM     19  C   UNL     1      20.062 -25.130   2.471  1.00  0.00    +0.055 A 
ATOM     20  C   UNL     1      19.831 -24.162   3.464  1.00  0.00    +0.018 A 
ATOM     21  C   UNL     1      21.332 -25.703   2.372  1.00  0.00    +0.136 A 
ATOM     22  C   UNL     1      20.857 -23.790   4.337  1.00  0.00    +0.040 A 
ATOM     23  C   UNL     1      22.357 -25.334   3.240  1.00  0.00    +0.079 A 
ATOM     24  C   UNL     1      22.109 -24.380   4.216  1.00  0.00    +0.126 A 
ATOM     25  F   UNL     1      21.610 -26.619   1.435  1.00  0.00    -0.206 F 
ATOM     26  F   UNL     1      23.091 -24.021   5.052  1.00  0.00    -0.207 F 
ENDBRANCH  17  19
ENDBRANCH  16  17
ENDBRANCH  11  16
ENDBRANCH   1   7
BRANCH   4  27
ATOM     27  S   UNL     1      15.501 -19.532   5.455  1.00  0.00    +0.240 S 
ATOM     28  O   UNL     1      16.664 -19.102   6.196  1.00  0.00    -0.207 OA
ATOM     29  O   UNL     1      14.538 -20.459   6.007  1.00  0.00    -0.207 OA
BRANCH  27  30
ATOM     30  N   UNL     1      14.673 -18.142   5.027  1.00  0.00    -0.202 NA
ATOM     31  H   UNL     1      15.264 -17.310   4.987  1.00  0.00    +0.141 HD
BRANCH  30  32
ATOM     32  C   UNL     1      13.268 -17.994   5.487  1.00  0.00    +0.214 C 
BRANCH  32  33
ATOM     33  C   UNL     1      12.489 -16.946   4.692  1.00  0.00    +0.402 C 
ATOM     34  F   UNL     1      11.290 -17.431   4.298  1.00  0.00    -0.170 F 
ATOM     35  F   UNL     1      12.256 -15.845   5.446  1.00  0.00    -0.170 F 
ATOM     36  F   UNL     1      13.158 -16.556   3.586  1.00  0.00    -0.170 F 
ENDBRANCH  32  33
ENDBRANCH  30  32
ENDBRANCH  27  30
ENDBRANCH   4  27
TORSDOF 8
ENDMDL
