MODEL 1
REMARK VINA RESULT:    -9.116      0.000      0.000
REMARK INTER + INTRA:         -12.289
REMARK INTER:                 -11.781
REMARK INTRA:                  -0.509
REMARK UNBOUND:                -0.509
REMARK SMILES O=C(NC(=O)c1ccsc1NC(=O)c1nc2ccccc2s1)OC1CCC1
REMARK SMILES IDX 1 1 2 2 3 3 4 4 5 5 23 7 24 8 25 9 27 10 26 11 6 12 7 13
REMARK SMILES IDX 10 14 8 15 9 16 11 17 12 18 13 19 14 21 15 22 22 23 16 24
REMARK SMILES IDX 21 25 17 26 20 27 18 28 19 29
REMARK H PARENT 3 6 11 20
ROOT
ATOM      1  O   UNL     1      17.131 -20.609   6.509  1.00  0.00    -0.224 OA
ATOM      2  C   UNL     1      16.249 -20.809   5.692  1.00  0.00    +0.414 C 
ATOM      3  N   UNL     1      15.317 -19.927   5.227  1.00  0.00    -0.257 N 
ATOM      4  C   UNL     1      15.111 -18.658   5.718  1.00  0.00    +0.263 C 
ATOM      5  O   UNL     1      15.735 -18.161   6.649  1.00  0.00    -0.269 OA
ATOM      6  H   UNL     1      14.692 -20.318   4.547  1.00  0.00    +0.176 HD
ENDROOT
BRANCH   2   7
ATOM      7  O   UNL     1      16.055 -21.996   5.055  1.00  0.00    -0.446 OA
BRANCH   7   8
ATOM      8  C   UNL     1      17.049 -22.318   4.058  1.00  0.00    +0.178 C 
ATOM      9  C   UNL     1      16.557 -23.086   2.803  1.00  0.00    +0.045 C 
ATOM     10  C   UNL     1      17.911 -23.566   4.373  1.00  0.00    +0.045 C 
ATOM     11  C   UNL     1      17.859 -23.904   2.871  1.00  0.00    +0.008 C 
ENDBRANCH   7   8
ENDBRANCH   2   7
BRANCH   4  12
ATOM     12  C   UNL     1      14.028 -17.911   5.053  1.00  0.00    +0.075 A 
ATOM     13  C   UNL     1      12.910 -17.239   5.674  1.00  0.00    +0.028 A 
ATOM     14  C   UNL     1      13.956 -17.784   3.668  1.00  0.00    +0.108 A 
ATOM     15  C   UNL     1      12.081 -16.629   4.762  1.00  0.00    +0.068 A 
ATOM     16  S   UNL     1      12.621 -16.861   3.165  1.00  0.00    -0.126 S 
BRANCH  14  17
ATOM     17  N   UNL     1      14.843 -18.323   2.752  1.00  0.00    -0.311 N 
ATOM     18  C   UNL     1      15.351 -17.747   1.595  1.00  0.00    +0.285 C 
ATOM     19  O   UNL     1      15.098 -16.616   1.187  1.00  0.00    -0.266 OA
ATOM     20  H   UNL     1      15.159 -19.281   2.937  1.00  0.00    +0.171 HD
BRANCH  18  21
ATOM     21  C   UNL     1      16.254 -18.665   0.896  1.00  0.00    +0.182 A 
ATOM     22  N   UNL     1      16.290 -18.754  -0.420  1.00  0.00    -0.231 NA
ATOM     23  S   UNL     1      17.326 -19.687   1.751  1.00  0.00    -0.109 S 
ATOM     24  C   UNL     1      17.233 -19.697  -0.794  1.00  0.00    +0.082 A 
ATOM     25  C   UNL     1      17.908 -20.319   0.258  1.00  0.00    +0.055 A 
ATOM     26  C   UNL     1      17.554 -20.062  -2.117  1.00  0.00    +0.030 A 
ATOM     27  C   UNL     1      18.892 -21.297   0.034  1.00  0.00    +0.021 A 
ATOM     28  C   UNL     1      18.532 -21.035  -2.352  1.00  0.00    +0.002 A 
ATOM     29  C   UNL     1      19.191 -21.643  -1.289  1.00  0.00    +0.002 A 
ENDBRANCH  18  21
ENDBRANCH  14  17
ENDBRANCH   4  12
TORSDOF 5
ENDMDL
MODEL 2
REMARK VINA RESULT:    -8.944      3.074      7.451
REMARK INTER + INTRA:         -12.067
REMARK INTER:                 -10.878
REMARK INTRA:                  -1.189
REMARK UNBOUND:                -0.509
REMARK SMILES O=C(NC(=O)c1ccsc1NC(=O)c1nc2ccccc2s1)OC1CCC1
REMARK SMILES IDX 1 1 2 2 3 3 4 4 5 5 23 7 24 8 25 9 27 10 26 11 6 12 7 13
REMARK SMILES IDX 10 14 8 15 9 16 11 17 12 18 13 19 14 21 15 22 22 23 16 24
REMARK SMILES IDX 21 25 17 26 20 27 18 28 19 29
REMARK H PARENT 3 6 11 20
ROOT
ATOM      1  O   UNL     1      14.628 -22.160  -2.133  1.00  0.00    -0.224 OA
ATOM      2  C   UNL     1      15.738 -21.952  -1.673  1.00  0.00    +0.414 C 
ATOM      3  N   UNL     1      16.431 -22.706  -0.771  1.00  0.00    -0.257 N 
ATOM      4  C   UNL     1      15.927 -23.792  -0.092  1.00  0.00    +0.263 C 
ATOM      5  O   UNL     1      14.782 -24.214  -0.204  1.00  0.00    -0.269 OA
ATOM      6  H   UNL     1      17.335 -22.338  -0.544  1.00  0.00    +0.176 HD
ENDROOT
BRANCH   2   7
ATOM      7  O   UNL     1      16.521 -20.894  -2.022  1.00  0.00    -0.446 OA
BRANCH   7   8
ATOM      8  C   UNL     1      16.966 -20.080  -0.916  1.00  0.00    +0.178 C 
ATOM      9  C   UNL     1      15.888 -19.225  -0.199  1.00  0.00    +0.045 C 
ATOM     10  C   UNL     1      17.632 -18.739  -1.317  1.00  0.00    +0.045 C 
ATOM     11  C   UNL     1      16.934 -18.100  -0.102  1.00  0.00    +0.008 C 
ENDBRANCH   7   8
ENDBRANCH   2   7
BRANCH   4  12
ATOM     12  C   UNL     1      16.875 -24.425   0.843  1.00  0.00    +0.075 A 
ATOM     13  C   UNL     1      17.687 -25.597   0.616  1.00  0.00    +0.028 A 
ATOM     14  C   UNL     1      17.086 -23.937   2.130  1.00  0.00    +0.108 A 
ATOM     15  C   UNL     1      18.472 -25.920   1.698  1.00  0.00    +0.068 A 
ATOM     16  S   UNL     1      18.240 -24.839   2.991  1.00  0.00    -0.126 S 
BRANCH  14  17
ATOM     17  N   UNL     1      16.459 -22.842   2.701  1.00  0.00    -0.311 N 
ATOM     18  C   UNL     1      16.925 -21.540   2.820  1.00  0.00    +0.285 C 
ATOM     19  O   UNL     1      18.006 -21.125   2.410  1.00  0.00    -0.266 OA
ATOM     20  H   UNL     1      15.532 -23.012   3.107  1.00  0.00    +0.171 HD
BRANCH  18  21
ATOM     21  C   UNL     1      15.951 -20.686   3.507  1.00  0.00    +0.182 A 
ATOM     22  N   UNL     1      15.614 -19.494   3.054  1.00  0.00    -0.231 NA
ATOM     23  S   UNL     1      15.189 -21.188   4.953  1.00  0.00    -0.109 S 
ATOM     24  C   UNL     1      14.680 -18.924   3.903  1.00  0.00    +0.082 A 
ATOM     25  C   UNL     1      14.319 -19.702   5.005  1.00  0.00    +0.055 A 
ATOM     26  C   UNL     1      14.084 -17.657   3.742  1.00  0.00    +0.030 A 
ATOM     27  C   UNL     1      13.384 -19.256   5.955  1.00  0.00    +0.021 A 
ATOM     28  C   UNL     1      13.152 -17.203   4.681  1.00  0.00    +0.002 A 
ATOM     29  C   UNL     1      12.808 -17.994   5.772  1.00  0.00    +0.002 A 
ENDBRANCH  18  21
ENDBRANCH  14  17
ENDBRANCH   4  12
TORSDOF 5
ENDMDL
MODEL 3
REMARK VINA RESULT:    -8.727      1.702      4.435
REMARK INTER + INTRA:         -11.787
REMARK INTER:                 -11.100
REMARK INTRA:                  -0.687
REMARK UNBOUND:                -0.509
REMARK SMILES O=C(NC(=O)c1ccsc1NC(=O)c1nc2ccccc2s1)OC1CCC1
REMARK SMILES IDX 1 1 2 2 3 3 4 4 5 5 23 7 24 8 25 9 27 10 26 11 6 12 7 13
REMARK SMILES IDX 10 14 8 15 9 16 11 17 12 18 13 19 14 21 15 22 22 23 16 24
REMARK SMILES IDX 21 25 17 26 20 27 18 28 19 29
REMARK H PARENT 3 6 11 20
ROOT
ATOM      1  O   UNL     1      16.159 -17.839  -0.013  1.00  0.00    -0.224 OA
ATOM      2  C   UNL     1      16.221 -18.557   0.969  1.00  0.00    +0.414 C 
ATOM      3  N   UNL     1      15.470 -18.496   2.107  1.00  0.00    -0.257 N 
ATOM      4  C   UNL     1      14.579 -17.494   2.416  1.00  0.00    +0.263 C 
ATOM      5  O   UNL     1      14.354 -16.518   1.708  1.00  0.00    -0.269 OA
ATOM      6  H   UNL     1      15.698 -19.201   2.782  1.00  0.00    +0.176 HD
ENDROOT
BRANCH   2   7
ATOM      7  O   UNL     1      17.076 -19.611   1.090  1.00  0.00    -0.446 OA
BRANCH   7   8
ATOM      8  C   UNL     1      17.606 -20.106  -0.158  1.00  0.00    +0.178 C 
ATOM      9  C   UNL     1      16.807 -21.237  -0.857  1.00  0.00    +0.045 C 
ATOM     10  C   UNL     1      18.760 -21.132  -0.018  1.00  0.00    +0.045 C 
ATOM     11  C   UNL     1      18.157 -21.881  -1.221  1.00  0.00    +0.008 C 
ENDBRANCH   7   8
ENDBRANCH   2   7
BRANCH   4  12
ATOM     12  C   UNL     1      13.905 -17.651   3.717  1.00  0.00    +0.075 A 
ATOM     13  C   UNL     1      12.984 -16.737   4.349  1.00  0.00    +0.028 A 
ATOM     14  C   UNL     1      14.114 -18.761   4.532  1.00  0.00    +0.108 A 
ATOM     15  C   UNL     1      12.530 -17.192   5.565  1.00  0.00    +0.068 A 
ATOM     16  S   UNL     1      13.204 -18.702   5.965  1.00  0.00    -0.126 S 
BRANCH  14  17
ATOM     17  N   UNL     1      14.955 -19.828   4.259  1.00  0.00    -0.311 N 
ATOM     18  C   UNL     1      16.010 -20.317   5.017  1.00  0.00    +0.285 C 
ATOM     19  O   UNL     1      16.378 -19.875   6.102  1.00  0.00    -0.266 OA
ATOM     20  H   UNL     1      14.791 -20.317   3.372  1.00  0.00    +0.171 HD
BRANCH  18  21
ATOM     21  C   UNL     1      16.655 -21.456   4.359  1.00  0.00    +0.182 A 
ATOM     22  N   UNL     1      16.189 -21.984   3.244  1.00  0.00    -0.231 NA
ATOM     23  S   UNL     1      18.064 -22.179   5.006  1.00  0.00    -0.109 S 
ATOM     24  C   UNL     1      16.999 -23.040   2.858  1.00  0.00    +0.082 A 
ATOM     25  C   UNL     1      18.082 -23.303   3.700  1.00  0.00    +0.055 A 
ATOM     26  C   UNL     1      16.817 -23.843   1.714  1.00  0.00    +0.030 A 
ATOM     27  C   UNL     1      18.990 -24.343   3.438  1.00  0.00    +0.021 A 
ATOM     28  C   UNL     1      17.715 -24.881   1.444  1.00  0.00    +0.002 A 
ATOM     29  C   UNL     1      18.787 -25.126   2.297  1.00  0.00    +0.002 A 
ENDBRANCH  18  21
ENDBRANCH  14  17
ENDBRANCH   4  12
TORSDOF 5
ENDMDL
MODEL 4
REMARK VINA RESULT:    -8.704      2.709      6.441
REMARK INTER + INTRA:         -11.757
REMARK INTER:                 -10.785
REMARK INTRA:                  -0.972
REMARK UNBOUND:                -0.509
REMARK SMILES O=C(NC(=O)c1ccsc1NC(=O)c1nc2ccccc2s1)OC1CCC1
REMARK SMILES IDX 1 1 2 2 3 3 4 4 5 5 23 7 24 8 25 9 27 10 26 11 6 12 7 13
REMARK SMILES IDX 10 14 8 15 9 16 11 17 12 18 13 19 14 21 15 22 22 23 16 24
REMARK SMILES IDX 21 25 17 26 20 27 18 28 19 29
REMARK H PARENT 3 6 11 20
ROOT
ATOM      1  O   UNL     1      20.233 -23.207   3.545  1.00  0.00    -0.224 OA
ATOM      2  C   UNL     1      19.629 -23.781   2.655  1.00  0.00    +0.414 C 
ATOM      3  N   UNL     1      19.165 -23.263   1.482  1.00  0.00    -0.257 N 
ATOM      4  C   UNL     1      19.172 -21.928   1.146  1.00  0.00    +0.263 C 
ATOM      5  O   UNL     1      19.588 -21.030   1.870  1.00  0.00    -0.269 OA
ATOM      6  H   UNL     1      18.700 -23.932   0.897  1.00  0.00    +0.176 HD
ENDROOT
BRANCH   2   7
ATOM      7  O   UNL     1      19.325 -25.109   2.674  1.00  0.00    -0.446 OA
BRANCH   7   8
ATOM      8  C   UNL     1      18.906 -25.652   1.404  1.00  0.00    +0.178 C 
ATOM      9  C   UNL     1      17.698 -26.624   1.423  1.00  0.00    +0.045 C 
ATOM     10  C   UNL     1      19.747 -26.851   0.896  1.00  0.00    +0.045 C 
ATOM     11  C   UNL     1      18.437 -27.466   0.368  1.00  0.00    +0.008 C 
ENDBRANCH   7   8
ENDBRANCH   2   7
BRANCH   4  12
ATOM     12  C   UNL     1      18.596 -21.624  -0.176  1.00  0.00    +0.075 A 
ATOM     13  C   UNL     1      19.098 -22.024  -1.469  1.00  0.00    +0.028 A 
ATOM     14  C   UNL     1      17.444 -20.856  -0.325  1.00  0.00    +0.108 A 
ATOM     15  C   UNL     1      18.314 -21.576  -2.508  1.00  0.00    +0.068 A 
ATOM     16  S   UNL     1      16.986 -20.672  -1.950  1.00  0.00    -0.126 S 
BRANCH  14  17
ATOM     17  N   UNL     1      16.708 -20.281   0.698  1.00  0.00    -0.311 N 
ATOM     18  C   UNL     1      16.386 -18.944   0.889  1.00  0.00    +0.285 C 
ATOM     19  O   UNL     1      16.702 -18.017   0.148  1.00  0.00    -0.266 OA
ATOM     20  H   UNL     1      16.365 -20.920   1.423  1.00  0.00    +0.171 HD
BRANCH  18  21
ATOM     21  C   UNL     1      15.600 -18.755   2.111  1.00  0.00    +0.182 A 
ATOM     22  N   UNL     1      14.701 -17.797   2.232  1.00  0.00    -0.231 NA
ATOM     23  S   UNL     1      15.804 -19.774   3.470  1.00  0.00    -0.109 S 
ATOM     24  C   UNL     1      14.119 -17.863   3.487  1.00  0.00    +0.082 A 
ATOM     25  C   UNL     1      14.593 -18.884   4.314  1.00  0.00    +0.055 A 
ATOM     26  C   UNL     1      13.114 -17.004   3.976  1.00  0.00    +0.030 A 
ATOM     27  C   UNL     1      14.099 -19.075   5.615  1.00  0.00    +0.021 A 
ATOM     28  C   UNL     1      12.615 -17.186   5.270  1.00  0.00    +0.002 A 
ATOM     29  C   UNL     1      13.103 -18.208   6.077  1.00  0.00    +0.002 A 
ENDBRANCH  18  21
ENDBRANCH  14  17
ENDBRANCH   4  12
TORSDOF 5
ENDMDL
MODEL 5
REMARK VINA RESULT:    -8.695      1.934      6.179
REMARK INTER + INTRA:         -11.745
REMARK INTER:                 -11.197
REMARK INTRA:                  -0.548
REMARK UNBOUND:                -0.509
REMARK SMILES O=C(NC(=O)c1ccsc1NC(=O)c1nc2ccccc2s1)OC1CCC1
REMARK SMILES IDX 1 1 2 2 3 3 4 4 5 5 23 7 24 8 25 9 27 10 26 11 6 12 7 13
REMARK SMILES IDX 10 14 8 15 9 16 11 17 12 18 13 19 14 21 15 22 22 23 16 24
REMARK SMILES IDX 21 25 17 26 20 27 18 28 19 29
REMARK H PARENT 3 6 11 20
ROOT
ATOM      1  O   UNL     1      18.996 -22.483   4.312  1.00  0.00    -0.224 OA
ATOM      2  C   UNL     1      17.948 -22.526   3.692  1.00  0.00    +0.414 C 
ATOM      3  N   UNL     1      17.740 -22.260   2.370  1.00  0.00    -0.257 N 
ATOM      4  C   UNL     1      18.679 -21.743   1.507  1.00  0.00    +0.263 C 
ATOM      5  O   UNL     1      19.825 -21.444   1.822  1.00  0.00    -0.269 OA
ATOM      6  H   UNL     1      16.787 -22.369   2.079  1.00  0.00    +0.176 HD
ENDROOT
BRANCH   2   7
ATOM      7  O   UNL     1      16.754 -22.891   4.237  1.00  0.00    -0.446 OA
BRANCH   7   8
ATOM      8  C   UNL     1      16.118 -21.872   5.038  1.00  0.00    +0.178 C 
ATOM      9  C   UNL     1      17.047 -20.823   5.703  1.00  0.00    +0.045 C 
ATOM     10  C   UNL     1      15.737 -22.311   6.474  1.00  0.00    +0.045 C 
ATOM     11  C   UNL     1      16.144 -20.904   6.947  1.00  0.00    +0.008 C 
ENDBRANCH   7   8
ENDBRANCH   2   7
BRANCH   4  12
ATOM     12  C   UNL     1      18.197 -21.531   0.130  1.00  0.00    +0.075 A 
ATOM     13  C   UNL     1      18.750 -22.069  -1.090  1.00  0.00    +0.028 A 
ATOM     14  C   UNL     1      17.100 -20.723  -0.155  1.00  0.00    +0.108 A 
ATOM     15  C   UNL     1      18.053 -21.677  -2.210  1.00  0.00    +0.068 A 
ATOM     16  S   UNL     1      16.746 -20.663  -1.816  1.00  0.00    -0.126 S 
BRANCH  14  17
ATOM     17  N   UNL     1      16.339 -20.023   0.766  1.00  0.00    -0.311 N 
ATOM     18  C   UNL     1      16.140 -18.653   0.866  1.00  0.00    +0.285 C 
ATOM     19  O   UNL     1      16.615 -17.804   0.116  1.00  0.00    -0.266 OA
ATOM     20  H   UNL     1      15.868 -20.585   1.484  1.00  0.00    +0.171 HD
BRANCH  18  21
ATOM     21  C   UNL     1      15.272 -18.321   1.999  1.00  0.00    +0.182 A 
ATOM     22  N   UNL     1      15.173 -19.095   3.063  1.00  0.00    -0.231 NA
ATOM     23  S   UNL     1      14.323 -16.898   2.009  1.00  0.00    -0.109 S 
ATOM     24  C   UNL     1      14.285 -18.531   3.964  1.00  0.00    +0.082 A 
ATOM     25  C   UNL     1      13.713 -17.321   3.564  1.00  0.00    +0.055 A 
ATOM     26  C   UNL     1      13.928 -19.070   5.217  1.00  0.00    +0.030 A 
ATOM     27  C   UNL     1      12.794 -16.631   4.373  1.00  0.00    +0.021 A 
ATOM     28  C   UNL     1      13.013 -18.391   6.029  1.00  0.00    +0.002 A 
ATOM     29  C   UNL     1      12.455 -17.188   5.611  1.00  0.00    +0.002 A 
ENDBRANCH  18  21
ENDBRANCH  14  17
ENDBRANCH   4  12
TORSDOF 5
ENDMDL
MODEL 6
REMARK VINA RESULT:    -8.612      2.846      7.209
REMARK INTER + INTRA:         -11.638
REMARK INTER:                 -10.669
REMARK INTRA:                  -0.970
REMARK UNBOUND:                -0.509
REMARK SMILES O=C(NC(=O)c1ccsc1NC(=O)c1nc2ccccc2s1)OC1CCC1
REMARK SMILES IDX 1 1 2 2 3 3 4 4 5 5 23 7 24 8 25 9 27 10 26 11 6 12 7 13
REMARK SMILES IDX 10 14 8 15 9 16 11 17 12 18 13 19 14 21 15 22 22 23 16 24
REMARK SMILES IDX 21 25 17 26 20 27 18 28 19 29
REMARK H PARENT 3 6 11 20
ROOT
ATOM      1  O   UNL     1      15.897 -23.250  -1.354  1.00  0.00    -0.224 OA
ATOM      2  C   UNL     1      16.990 -22.833  -1.011  1.00  0.00    +0.414 C 
ATOM      3  N   UNL     1      17.635 -23.037   0.174  1.00  0.00    -0.257 N 
ATOM      4  C   UNL     1      17.090 -23.649   1.279  1.00  0.00    +0.263 C 
ATOM      5  O   UNL     1      15.945 -24.082   1.342  1.00  0.00    -0.269 OA
ATOM      6  H   UNL     1      18.535 -22.597   0.227  1.00  0.00    +0.176 HD
ENDROOT
BRANCH   2   7
ATOM      7  O   UNL     1      17.800 -22.078  -1.803  1.00  0.00    -0.446 OA
BRANCH   7   8
ATOM      8  C   UNL     1      17.333 -20.733  -2.041  1.00  0.00    +0.178 C 
ATOM      9  C   UNL     1      18.145 -19.585  -1.387  1.00  0.00    +0.045 C 
ATOM     10  C   UNL     1      16.150 -20.283  -1.147  1.00  0.00    +0.045 C 
ATOM     11  C   UNL     1      16.804 -18.891  -1.087  1.00  0.00    +0.008 C 
ENDBRANCH   7   8
ENDBRANCH   2   7
BRANCH   4  12
ATOM     12  C   UNL     1      17.991 -23.730   2.443  1.00  0.00    +0.075 A 
ATOM     13  C   UNL     1      19.017 -24.714   2.697  1.00  0.00    +0.028 A 
ATOM     14  C   UNL     1      17.929 -22.818   3.494  1.00  0.00    +0.108 A 
ATOM     15  C   UNL     1      19.684 -24.496   3.880  1.00  0.00    +0.068 A 
ATOM     16  S   UNL     1      19.088 -23.128   4.697  1.00  0.00    -0.126 S 
BRANCH  14  17
ATOM     17  N   UNL     1      17.048 -21.756   3.602  1.00  0.00    -0.311 N 
ATOM     18  C   UNL     1      17.023 -20.572   2.876  1.00  0.00    +0.285 C 
ATOM     19  O   UNL     1      17.800 -20.268   1.975  1.00  0.00    -0.266 OA
ATOM     20  H   UNL     1      16.324 -21.840   4.323  1.00  0.00    +0.171 HD
BRANCH  18  21
ATOM     21  C   UNL     1      15.929 -19.701   3.316  1.00  0.00    +0.182 A 
ATOM     22  N   UNL     1      15.428 -19.758   4.535  1.00  0.00    -0.231 NA
ATOM     23  S   UNL     1      15.229 -18.548   2.265  1.00  0.00    -0.109 S 
ATOM     24  C   UNL     1      14.415 -18.823   4.663  1.00  0.00    +0.082 A 
ATOM     25  C   UNL     1      14.156 -18.060   3.521  1.00  0.00    +0.055 A 
ATOM     26  C   UNL     1      13.649 -18.589   5.823  1.00  0.00    +0.030 A 
ATOM     27  C   UNL     1      13.156 -17.073   3.499  1.00  0.00    +0.021 A 
ATOM     28  C   UNL     1      12.651 -17.609   5.811  1.00  0.00    +0.002 A 
ATOM     29  C   UNL     1      12.410 -16.862   4.663  1.00  0.00    +0.002 A 
ENDBRANCH  18  21
ENDBRANCH  14  17
ENDBRANCH   4  12
TORSDOF 5
ENDMDL
MODEL 7
REMARK VINA RESULT:    -8.520      3.117      7.759
REMARK INTER + INTRA:         -11.519
REMARK INTER:                 -10.535
REMARK INTRA:                  -0.984
REMARK UNBOUND:                -0.509
REMARK SMILES O=C(NC(=O)c1ccsc1NC(=O)c1nc2ccccc2s1)OC1CCC1
REMARK SMILES IDX 1 1 2 2 3 3 4 4 5 5 23 7 24 8 25 9 27 10 26 11 6 12 7 13
REMARK SMILES IDX 10 14 8 15 9 16 11 17 12 18 13 19 14 21 15 22 22 23 16 24
REMARK SMILES IDX 21 25 17 26 20 27 18 28 19 29
REMARK H PARENT 3 6 11 20
ROOT
ATOM      1  O   UNL     1      18.035 -19.544  -2.081  1.00  0.00    -0.224 OA
ATOM      2  C   UNL     1      18.383 -20.695  -2.280  1.00  0.00    +0.414 C 
ATOM      3  N   UNL     1      18.338 -21.749  -1.415  1.00  0.00    -0.257 N 
ATOM      4  C   UNL     1      18.016 -21.667  -0.080  1.00  0.00    +0.263 C 
ATOM      5  O   UNL     1      17.737 -20.628   0.507  1.00  0.00    -0.269 OA
ATOM      6  H   UNL     1      18.675 -22.609  -1.806  1.00  0.00    +0.176 HD
ENDROOT
BRANCH   2   7
ATOM      7  O   UNL     1      18.874 -21.148  -3.466  1.00  0.00    -0.446 OA
BRANCH   7   8
ATOM      8  C   UNL     1      19.901 -22.157  -3.352  1.00  0.00    +0.178 C 
ATOM      9  C   UNL     1      21.366 -21.688  -3.546  1.00  0.00    +0.045 C 
ATOM     10  C   UNL     1      20.107 -23.028  -4.617  1.00  0.00    +0.045 C 
ATOM     11  C   UNL     1      21.617 -22.997  -4.316  1.00  0.00    +0.008 C 
ENDBRANCH   7   8
ENDBRANCH   2   7
BRANCH   4  12
ATOM     12  C   UNL     1      18.058 -22.952   0.642  1.00  0.00    +0.075 A 
ATOM     13  C   UNL     1      18.699 -24.177   0.225  1.00  0.00    +0.028 A 
ATOM     14  C   UNL     1      17.429 -23.133   1.871  1.00  0.00    +0.108 A 
ATOM     15  C   UNL     1      18.553 -25.193   1.140  1.00  0.00    +0.068 A 
ATOM     16  S   UNL     1      17.647 -24.699   2.493  1.00  0.00    -0.126 S 
BRANCH  14  17
ATOM     17  N   UNL     1      16.695 -22.183   2.561  1.00  0.00    -0.311 N 
ATOM     18  C   UNL     1      16.946 -21.634   3.811  1.00  0.00    +0.285 C 
ATOM     19  O   UNL     1      17.903 -21.902   4.533  1.00  0.00    -0.266 OA
ATOM     20  H   UNL     1      15.844 -21.846   2.100  1.00  0.00    +0.171 HD
BRANCH  18  21
ATOM     21  C   UNL     1      15.911 -20.666   4.185  1.00  0.00    +0.182 A 
ATOM     22  N   UNL     1      15.620 -19.619   3.438  1.00  0.00    -0.231 NA
ATOM     23  S   UNL     1      15.010 -20.837   5.629  1.00  0.00    -0.109 S 
ATOM     24  C   UNL     1      14.608 -18.889   4.038  1.00  0.00    +0.082 A 
ATOM     25  C   UNL     1      14.140 -19.398   5.251  1.00  0.00    +0.055 A 
ATOM     26  C   UNL     1      14.032 -17.706   3.531  1.00  0.00    +0.030 A 
ATOM     27  C   UNL     1      13.116 -18.765   5.977  1.00  0.00    +0.021 A 
ATOM     28  C   UNL     1      13.012 -17.068   4.245  1.00  0.00    +0.002 A 
ATOM     29  C   UNL     1      12.562 -17.593   5.452  1.00  0.00    +0.002 A 
ENDBRANCH  18  21
ENDBRANCH  14  17
ENDBRANCH   4  12
TORSDOF 5
ENDMDL
MODEL 8
REMARK VINA RESULT:    -8.520      3.189      7.730
REMARK INTER + INTRA:         -11.519
REMARK INTER:                 -10.543
REMARK INTRA:                  -0.976
REMARK UNBOUND:                -0.509
REMARK SMILES O=C(NC(=O)c1ccsc1NC(=O)c1nc2ccccc2s1)OC1CCC1
REMARK SMILES IDX 1 1 2 2 3 3 4 4 5 5 23 7 24 8 25 9 27 10 26 11 6 12 7 13
REMARK SMILES IDX 10 14 8 15 9 16 11 17 12 18 13 19 14 21 15 22 22 23 16 24
REMARK SMILES IDX 21 25 17 26 20 27 18 28 19 29
REMARK H PARENT 3 6 11 20
ROOT
ATOM      1  O   UNL     1      15.834 -21.824  -2.784  1.00  0.00    -0.224 OA
ATOM      2  C   UNL     1      16.935 -21.921  -2.271  1.00  0.00    +0.414 C 
ATOM      3  N   UNL     1      17.308 -22.704  -1.218  1.00  0.00    -0.257 N 
ATOM      4  C   UNL     1      16.449 -23.438  -0.432  1.00  0.00    +0.263 C 
ATOM      5  O   UNL     1      15.232 -23.472  -0.574  1.00  0.00    -0.269 OA
ATOM      6  H   UNL     1      18.277 -22.623  -0.975  1.00  0.00    +0.176 HD
ENDROOT
BRANCH   2   7
ATOM      7  O   UNL     1      18.039 -21.251  -2.705  1.00  0.00    -0.446 OA
BRANCH   7   8
ATOM      8  C   UNL     1      19.134 -22.094  -3.122  1.00  0.00    +0.178 C 
ATOM      9  C   UNL     1      20.475 -21.926  -2.361  1.00  0.00    +0.045 C 
ATOM     10  C   UNL     1      19.893 -21.606  -4.382  1.00  0.00    +0.045 C 
ATOM     11  C   UNL     1      21.191 -22.092  -3.713  1.00  0.00    +0.008 C 
ENDBRANCH   7   8
ENDBRANCH   2   7
BRANCH   4  12
ATOM     12  C   UNL     1      17.102 -24.188   0.656  1.00  0.00    +0.075 A 
ATOM     13  C   UNL     1      17.806 -25.445   0.562  1.00  0.00    +0.028 A 
ATOM     14  C   UNL     1      17.091 -23.741   1.975  1.00  0.00    +0.108 A 
ATOM     15  C   UNL     1      18.304 -25.870   1.772  1.00  0.00    +0.068 A 
ATOM     16  S   UNL     1      17.929 -24.782   3.025  1.00  0.00    -0.126 S 
BRANCH  14  17
ATOM     17  N   UNL     1      16.486 -22.586   2.441  1.00  0.00    -0.311 N 
ATOM     18  C   UNL     1      17.027 -21.314   2.568  1.00  0.00    +0.285 C 
ATOM     19  O   UNL     1      18.171 -20.988   2.262  1.00  0.00    -0.266 OA
ATOM     20  H   UNL     1      15.513 -22.679   2.751  1.00  0.00    +0.171 HD
BRANCH  18  21
ATOM     21  C   UNL     1      16.049 -20.372   3.120  1.00  0.00    +0.182 A 
ATOM     22  N   UNL     1      15.461 -20.567   4.284  1.00  0.00    -0.231 NA
ATOM     23  S   UNL     1      15.606 -18.950   2.278  1.00  0.00    -0.109 S 
ATOM     24  C   UNL     1      14.594 -19.519   4.545  1.00  0.00    +0.082 A 
ATOM     25  C   UNL     1      14.534 -18.531   3.560  1.00  0.00    +0.055 A 
ATOM     26  C   UNL     1      13.792 -19.380   5.696  1.00  0.00    +0.030 A 
ATOM     27  C   UNL     1      13.698 -17.408   3.684  1.00  0.00    +0.021 A 
ATOM     28  C   UNL     1      12.957 -18.265   5.830  1.00  0.00    +0.002 A 
ATOM     29  C   UNL     1      12.912 -17.294   4.836  1.00  0.00    +0.002 A 
ENDBRANCH  18  21
ENDBRANCH  14  17
ENDBRANCH   4  12
TORSDOF 5
ENDMDL
MODEL 9
REMARK VINA RESULT:    -8.275      3.272      5.861
REMARK INTER + INTRA:         -11.203
REMARK INTER:                 -10.157
REMARK INTRA:                  -1.046
REMARK UNBOUND:                -0.509
REMARK SMILES O=C(NC(=O)c1ccsc1NC(=O)c1nc2ccccc2s1)OC1CCC1
REMARK SMILES IDX 1 1 2 2 3 3 4 4 5 5 23 7 24 8 25 9 27 10 26 11 6 12 7 13
REMARK SMILES IDX 10 14 8 15 9 16 11 17 12 18 13 19 14 21 15 22 22 23 16 24
REMARK SMILES IDX 21 25 17 26 20 27 18 28 19 29
REMARK H PARENT 3 6 11 20
ROOT
ATOM      1  O   UNL     1      15.813 -21.884   5.984  1.00  0.00    -0.224 OA
ATOM      2  C   UNL     1      15.209 -21.000   5.403  1.00  0.00    +0.414 C 
ATOM      3  N   UNL     1      15.434 -20.509   4.150  1.00  0.00    -0.257 N 
ATOM      4  C   UNL     1      16.505 -20.835   3.350  1.00  0.00    +0.263 C 
ATOM      5  O   UNL     1      17.405 -21.605   3.670  1.00  0.00    -0.269 OA
ATOM      6  H   UNL     1      14.799 -19.781   3.879  1.00  0.00    +0.176 HD
ENDROOT
BRANCH   2   7
ATOM      7  O   UNL     1      14.136 -20.342   5.923  1.00  0.00    -0.446 OA
BRANCH   7   8
ATOM      8  C   UNL     1      13.806 -19.103   5.259  1.00  0.00    +0.178 C 
ATOM      9  C   UNL     1      14.353 -17.800   5.898  1.00  0.00    +0.045 C 
ATOM     10  C   UNL     1      12.390 -18.552   5.567  1.00  0.00    +0.045 C 
ATOM     11  C   UNL     1      13.005 -17.140   5.556  1.00  0.00    +0.008 C 
ENDBRANCH   7   8
ENDBRANCH   2   7
BRANCH   4  12
ATOM     12  C   UNL     1      16.528 -20.152   2.045  1.00  0.00    +0.075 A 
ATOM     13  C   UNL     1      16.109 -18.802   1.749  1.00  0.00    +0.028 A 
ATOM     14  C   UNL     1      16.967 -20.784   0.884  1.00  0.00    +0.108 A 
ATOM     15  C   UNL     1      16.268 -18.473   0.423  1.00  0.00    +0.068 A 
ATOM     16  S   UNL     1      16.907 -19.768  -0.477  1.00  0.00    -0.126 S 
BRANCH  14  17
ATOM     17  N   UNL     1      17.417 -22.090   0.785  1.00  0.00    -0.311 N 
ATOM     18  C   UNL     1      18.713 -22.549   0.592  1.00  0.00    +0.285 C 
ATOM     19  O   UNL     1      19.713 -21.845   0.485  1.00  0.00    -0.266 OA
ATOM     20  H   UNL     1      16.700 -22.821   0.847  1.00  0.00    +0.171 HD
BRANCH  18  21
ATOM     21  C   UNL     1      18.756 -24.012   0.530  1.00  0.00    +0.182 A 
ATOM     22  N   UNL     1      17.747 -24.766   0.923  1.00  0.00    -0.231 NA
ATOM     23  S   UNL     1      20.132 -24.840  -0.059  1.00  0.00    -0.109 S 
ATOM     24  C   UNL     1      18.071 -26.101   0.748  1.00  0.00    +0.082 A 
ATOM     25  C   UNL     1      19.340 -26.345   0.219  1.00  0.00    +0.055 A 
ATOM     26  C   UNL     1      17.240 -27.198   1.054  1.00  0.00    +0.030 A 
ATOM     27  C   UNL     1      19.810 -27.649  -0.013  1.00  0.00    +0.021 A 
ATOM     28  C   UNL     1      17.698 -28.500   0.826  1.00  0.00    +0.002 A 
ATOM     29  C   UNL     1      18.966 -28.720   0.300  1.00  0.00    +0.002 A 
ENDBRANCH  18  21
ENDBRANCH  14  17
ENDBRANCH   4  12
TORSDOF 5
ENDMDL
