MODEL 1
REMARK VINA RESULT:    -8.638      0.000      0.000
REMARK INTER + INTRA:          -9.849
REMARK INTER:                  -9.648
REMARK INTRA:                  -0.200
REMARK UNBOUND:                -0.200
REMARK SMILES O=c1nc(N2CCN(CC3CCCCC3)CC2)sc2nc(Cl)ncc12
REMARK SMILES IDX 1 1 2 2 3 3 4 4 5 5 6 6 7 7 8 8 16 9 17 10 18 11 19 12 20 13
REMARK SMILES IDX 21 14 22 15 23 16 24 17 25 18 9 19 10 20 11 21 15 22 12 23
REMARK SMILES IDX 14 24 13 25
REMARK H PARENT
ROOT
ATOM      1  O   UNL     1      16.946 -22.667   4.592  1.00  0.00    -0.266 OA
ATOM      2  C   UNL     1      16.563 -21.847   3.764  1.00  0.00    +0.284 C 
ATOM      3  N   UNL     1      16.913 -21.923   2.448  1.00  0.00    -0.181 NA
ATOM      4  C   UNL     1      16.894 -20.932   1.612  1.00  0.00    +0.191 C 
ATOM      5  N   UNL     1      17.275 -21.133   0.283  1.00  0.00    -0.345 N 
ATOM      6  C   UNL     1      17.743 -20.033  -0.588  1.00  0.00    +0.134 C 
ATOM      7  C   UNL     1      17.713 -20.411  -2.086  1.00  0.00    +0.106 C 
ATOM      8  N   UNL     1      18.388 -21.676  -2.435  1.00  0.00    -0.300 NA
ATOM      9  C   UNL     1      17.816 -22.736  -1.582  1.00  0.00    +0.106 C 
ATOM     10  C   UNL     1      17.858 -22.454  -0.066  1.00  0.00    +0.134 C 
ATOM     11  S   UNL     1      16.389 -19.314   2.076  1.00  0.00    -0.078 SA
ATOM     12  C   UNL     1      15.470 -19.649   3.538  1.00  0.00    +0.137 A 
ATOM     13  N   UNL     1      14.638 -18.668   3.953  1.00  0.00    -0.206 NA
ATOM     14  C   UNL     1      13.988 -18.905   5.098  1.00  0.00    +0.223 A 
ATOM     15 Cl   UNL     1      12.926 -17.687   5.641  1.00  0.00    -0.041 Cl
ATOM     16  N   UNL     1      14.091 -19.999   5.864  1.00  0.00    -0.226 NA
ATOM     17  C   UNL     1      14.939 -20.943   5.407  1.00  0.00    +0.131 A 
ATOM     18  C   UNL     1      15.647 -20.814   4.233  1.00  0.00    +0.096 A 
ENDROOT
BRANCH   8  19
ATOM     19  C   UNL     1      19.852 -21.554  -2.328  1.00  0.00    +0.088 C 
BRANCH  19  20
ATOM     20  C   UNL     1      20.616 -21.949  -3.611  1.00  0.00    +0.003 C 
ATOM     21  C   UNL     1      19.928 -21.409  -4.883  1.00  0.00    +0.005 C 
ATOM     22  C   UNL     1      22.070 -21.462  -3.541  1.00  0.00    +0.005 C 
ATOM     23  C   UNL     1      20.880 -21.221  -6.068  1.00  0.00    +0.000 C 
ATOM     24  C   UNL     1      22.894 -21.951  -4.735  1.00  0.00    +0.000 C 
ATOM     25  C   UNL     1      22.069 -22.168  -6.004  1.00  0.00    +0.000 C 
ENDBRANCH  19  20
ENDBRANCH   8  19
TORSDOF 2
ENDMDL
MODEL 2
REMARK VINA RESULT:    -8.124      1.363      1.646
REMARK INTER + INTRA:          -9.275
REMARK INTER:                  -9.019
REMARK INTRA:                  -0.255
REMARK UNBOUND:                -0.200
REMARK SMILES O=c1nc(N2CCN(CC3CCCCC3)CC2)sc2nc(Cl)ncc12
REMARK SMILES IDX 1 1 2 2 3 3 4 4 5 5 6 6 7 7 8 8 16 9 17 10 18 11 19 12 20 13
REMARK SMILES IDX 21 14 22 15 23 16 24 17 25 18 9 19 10 20 11 21 15 22 12 23
REMARK SMILES IDX 14 24 13 25
REMARK H PARENT
ROOT
ATOM      1  O   UNL     1      16.570 -21.986   4.827  1.00  0.00    -0.266 OA
ATOM      2  C   UNL     1      16.194 -21.253   3.919  1.00  0.00    +0.284 C 
ATOM      3  N   UNL     1      16.558 -21.457   2.620  1.00  0.00    -0.181 NA
ATOM      4  C   UNL     1      16.546 -20.555   1.689  1.00  0.00    +0.191 C 
ATOM      5  N   UNL     1      16.941 -20.885   0.391  1.00  0.00    -0.345 N 
ATOM      6  C   UNL     1      17.416 -19.875  -0.580  1.00  0.00    +0.134 C 
ATOM      7  C   UNL     1      17.402 -20.400  -2.033  1.00  0.00    +0.106 C 
ATOM      8  N   UNL     1      18.083 -21.692  -2.249  1.00  0.00    -0.300 NA
ATOM      9  C   UNL     1      17.503 -22.663  -1.301  1.00  0.00    +0.106 C 
ATOM     10  C   UNL     1      17.529 -22.233   0.180  1.00  0.00    +0.134 C 
ATOM     11  S   UNL     1      16.034 -18.899   1.986  1.00  0.00    -0.078 SA
ATOM     12  C   UNL     1      15.101 -19.091   3.465  1.00  0.00    +0.137 A 
ATOM     13  N   UNL     1      14.263 -18.075   3.773  1.00  0.00    -0.206 NA
ATOM     14  C   UNL     1      13.602 -18.199   4.929  1.00  0.00    +0.223 A 
ATOM     15 Cl   UNL     1      12.533 -16.937   5.339  1.00  0.00    -0.041 Cl
ATOM     16  N   UNL     1      13.698 -19.212   5.800  1.00  0.00    -0.226 NA
ATOM     17  C   UNL     1      14.553 -20.194   5.447  1.00  0.00    +0.131 A 
ATOM     18  C   UNL     1      15.273 -20.181   4.273  1.00  0.00    +0.096 A 
ENDROOT
BRANCH   8  19
ATOM     19  C   UNL     1      19.545 -21.556  -2.139  1.00  0.00    +0.088 C 
BRANCH  19  20
ATOM     20  C   UNL     1      20.317 -22.884  -2.303  1.00  0.00    +0.003 C 
ATOM     21  C   UNL     1      20.523 -23.255  -3.787  1.00  0.00    +0.005 C 
ATOM     22  C   UNL     1      21.668 -22.812  -1.577  1.00  0.00    +0.005 C 
ATOM     23  C   UNL     1      21.736 -24.156  -4.036  1.00  0.00    +0.000 C 
ATOM     24  C   UNL     1      22.402 -24.155  -1.602  1.00  0.00    +0.000 C 
ATOM     25  C   UNL     1      22.072 -25.012  -2.825  1.00  0.00    +0.000 C 
ENDBRANCH  19  20
ENDBRANCH   8  19
TORSDOF 2
ENDMDL
MODEL 3
REMARK VINA RESULT:    -8.086      4.369      9.559
REMARK INTER + INTRA:          -9.232
REMARK INTER:                  -8.969
REMARK INTRA:                  -0.263
REMARK UNBOUND:                -0.200
REMARK SMILES O=c1nc(N2CCN(CC3CCCCC3)CC2)sc2nc(Cl)ncc12
REMARK SMILES IDX 1 1 2 2 3 3 4 4 5 5 6 6 7 7 8 8 16 9 17 10 18 11 19 12 20 13
REMARK SMILES IDX 21 14 22 15 23 16 24 17 25 18 9 19 10 20 11 21 15 22 12 23
REMARK SMILES IDX 14 24 13 25
REMARK H PARENT
ROOT
ATOM      1  O   UNL     1      21.327 -25.019  -3.160  1.00  0.00    -0.266 OA
ATOM      2  C   UNL     1      20.858 -23.898  -2.998  1.00  0.00    +0.284 C 
ATOM      3  N   UNL     1      20.442 -23.452  -1.778  1.00  0.00    -0.181 NA
ATOM      4  C   UNL     1      19.603 -22.484  -1.583  1.00  0.00    +0.191 C 
ATOM      5  N   UNL     1      19.253 -22.114  -0.282  1.00  0.00    -0.345 N 
ATOM      6  C   UNL     1      17.998 -21.398   0.034  1.00  0.00    +0.134 C 
ATOM      7  C   UNL     1      18.024 -20.751   1.437  1.00  0.00    +0.106 C 
ATOM      8  N   UNL     1      18.404 -21.650   2.544  1.00  0.00    -0.300 NA
ATOM      9  C   UNL     1      19.698 -22.266   2.191  1.00  0.00    +0.106 C 
ATOM     10  C   UNL     1      19.736 -22.980   0.825  1.00  0.00    +0.134 C 
ATOM     11  S   UNL     1      18.875 -21.583  -2.906  1.00  0.00    -0.078 SA
ATOM     12  C   UNL     1      19.997 -21.935  -4.216  1.00  0.00    +0.137 A 
ATOM     13  N   UNL     1      19.937 -21.111  -5.285  1.00  0.00    -0.206 NA
ATOM     14  C   UNL     1      20.748 -21.420  -6.302  1.00  0.00    +0.223 A 
ATOM     15 Cl   UNL     1      20.699 -20.392  -7.660  1.00  0.00    -0.041 Cl
ATOM     16  N   UNL     1      21.592 -22.458  -6.364  1.00  0.00    -0.226 NA
ATOM     17  C   UNL     1      21.607 -23.252  -5.273  1.00  0.00    +0.131 A 
ATOM     18  C   UNL     1      20.828 -23.020  -4.161  1.00  0.00    +0.096 A 
ENDROOT
BRANCH   8  19
ATOM     19  C   UNL     1      17.341 -22.626   2.835  1.00  0.00    +0.088 C 
BRANCH  19  20
ATOM     20  C   UNL     1      16.651 -22.421   4.202  1.00  0.00    +0.003 C 
ATOM     21  C   UNL     1      17.533 -21.620   5.182  1.00  0.00    +0.005 C 
ATOM     22  C   UNL     1      15.292 -21.731   4.018  1.00  0.00    +0.005 C 
ATOM     23  C   UNL     1      16.741 -20.876   6.260  1.00  0.00    +0.000 C 
ATOM     24  C   UNL     1      14.518 -21.633   5.336  1.00  0.00    +0.000 C 
ATOM     25  C   UNL     1      15.416 -21.557   6.571  1.00  0.00    +0.000 C 
ENDBRANCH  19  20
ENDBRANCH   8  19
TORSDOF 2
ENDMDL
MODEL 4
REMARK VINA RESULT:    -7.746      4.438      9.490
REMARK INTER + INTRA:          -8.852
REMARK INTER:                  -8.577
REMARK INTRA:                  -0.275
REMARK UNBOUND:                -0.200
REMARK SMILES O=c1nc(N2CCN(CC3CCCCC3)CC2)sc2nc(Cl)ncc12
REMARK SMILES IDX 1 1 2 2 3 3 4 4 5 5 6 6 7 7 8 8 16 9 17 10 18 11 19 12 20 13
REMARK SMILES IDX 21 14 22 15 23 16 24 17 25 18 9 19 10 20 11 21 15 22 12 23
REMARK SMILES IDX 14 24 13 25
REMARK H PARENT
ROOT
ATOM      1  O   UNL     1      18.305 -20.448  -3.460  1.00  0.00    -0.266 OA
ATOM      2  C   UNL     1      18.874 -21.359  -2.870  1.00  0.00    +0.284 C 
ATOM      3  N   UNL     1      18.437 -21.834  -1.668  1.00  0.00    -0.181 NA
ATOM      4  C   UNL     1      19.163 -22.485  -0.814  1.00  0.00    +0.191 C 
ATOM      5  N   UNL     1      18.601 -22.923   0.388  1.00  0.00    -0.345 N 
ATOM      6  C   UNL     1      19.416 -23.222   1.587  1.00  0.00    +0.134 C 
ATOM      7  C   UNL     1      18.645 -24.059   2.631  1.00  0.00    +0.106 C 
ATOM      8  N   UNL     1      17.321 -23.531   3.018  1.00  0.00    -0.300 NA
ATOM      9  C   UNL     1      16.543 -23.332   1.779  1.00  0.00    +0.106 C 
ATOM     10  C   UNL     1      17.226 -22.460   0.706  1.00  0.00    +0.134 C 
ATOM     11  S   UNL     1      20.854 -22.864  -1.105  1.00  0.00    -0.078 SA
ATOM     12  C   UNL     1      20.944 -22.697  -2.855  1.00  0.00    +0.137 A 
ATOM     13  N   UNL     1      22.015 -23.269  -3.450  1.00  0.00    -0.206 NA
ATOM     14  C   UNL     1      22.109 -23.087  -4.772  1.00  0.00    +0.223 A 
ATOM     15 Cl   UNL     1      23.445 -23.804  -5.550  1.00  0.00    -0.041 Cl
ATOM     16  N   UNL     1      21.264 -22.394  -5.546  1.00  0.00    -0.226 NA
ATOM     17  C   UNL     1      20.217 -21.839  -4.900  1.00  0.00    +0.131 A 
ATOM     18  C   UNL     1      20.010 -21.975  -3.545  1.00  0.00    +0.096 A 
ENDROOT
BRANCH   8  19
ATOM     19  C   UNL     1      17.445 -22.317   3.842  1.00  0.00    +0.088 C 
BRANCH  19  20
ATOM     20  C   UNL     1      16.097 -21.637   4.171  1.00  0.00    +0.003 C 
ATOM     21  C   UNL     1      15.632 -21.939   5.611  1.00  0.00    +0.005 C 
ATOM     22  C   UNL     1      16.193 -20.121   3.947  1.00  0.00    +0.005 C 
ATOM     23  C   UNL     1      14.699 -20.876   6.196  1.00  0.00    +0.000 C 
ATOM     24  C   UNL     1      14.839 -19.430   4.132  1.00  0.00    +0.000 C 
ATOM     25  C   UNL     1      13.914 -20.146   5.116  1.00  0.00    +0.000 C 
ENDBRANCH  19  20
ENDBRANCH   8  19
TORSDOF 2
ENDMDL
MODEL 5
REMARK VINA RESULT:    -7.729      2.875      4.805
REMARK INTER + INTRA:          -8.833
REMARK INTER:                  -8.559
REMARK INTRA:                  -0.274
REMARK UNBOUND:                -0.200
REMARK SMILES O=c1nc(N2CCN(CC3CCCCC3)CC2)sc2nc(Cl)ncc12
REMARK SMILES IDX 1 1 2 2 3 3 4 4 5 5 6 6 7 7 8 8 16 9 17 10 18 11 19 12 20 13
REMARK SMILES IDX 21 14 22 15 23 16 24 17 25 18 9 19 10 20 11 21 15 22 12 23
REMARK SMILES IDX 14 24 13 25
REMARK H PARENT
ROOT
ATOM      1  O   UNL     1      17.561 -18.579  -1.272  1.00  0.00    -0.266 OA
ATOM      2  C   UNL     1      18.035 -19.679  -1.014  1.00  0.00    +0.284 C 
ATOM      3  N   UNL     1      18.986 -20.265  -1.798  1.00  0.00    -0.181 NA
ATOM      4  C   UNL     1      19.245 -21.535  -1.836  1.00  0.00    +0.191 C 
ATOM      5  N   UNL     1      20.246 -22.018  -2.681  1.00  0.00    -0.345 N 
ATOM      6  C   UNL     1      20.287 -23.421  -3.149  1.00  0.00    +0.134 C 
ATOM      7  C   UNL     1      21.668 -23.814  -3.719  1.00  0.00    +0.106 C 
ATOM      8  N   UNL     1      22.214 -22.906  -4.746  1.00  0.00    -0.300 NA
ATOM      9  C   UNL     1      22.213 -21.542  -4.180  1.00  0.00    +0.106 C 
ATOM     10  C   UNL     1      20.853 -21.057  -3.638  1.00  0.00    +0.134 C 
ATOM     11  S   UNL     1      18.387 -22.704  -0.843  1.00  0.00    -0.078 SA
ATOM     12  C   UNL     1      17.727 -21.664   0.414  1.00  0.00    +0.137 A 
ATOM     13  N   UNL     1      17.314 -22.286   1.541  1.00  0.00    -0.206 NA
ATOM     14  C   UNL     1      16.758 -21.498   2.468  1.00  0.00    +0.223 A 
ATOM     15 Cl   UNL     1      16.235 -22.255   3.902  1.00  0.00    -0.041 Cl
ATOM     16  N   UNL     1      16.565 -20.176   2.381  1.00  0.00    -0.226 NA
ATOM     17  C   UNL     1      16.989 -19.607   1.234  1.00  0.00    +0.131 A 
ATOM     18  C   UNL     1      17.592 -20.317   0.219  1.00  0.00    +0.096 A 
ENDROOT
BRANCH   8  19
ATOM     19  C   UNL     1      21.476 -23.021  -6.015  1.00  0.00    +0.088 C 
BRANCH  19  20
ATOM     20  C   UNL     1      21.864 -21.962  -7.071  1.00  0.00    +0.003 C 
ATOM     21  C   UNL     1      22.582 -22.590  -8.284  1.00  0.00    +0.005 C 
ATOM     22  C   UNL     1      20.624 -21.181  -7.529  1.00  0.00    +0.005 C 
ATOM     23  C   UNL     1      22.449 -21.774  -9.572  1.00  0.00    +0.000 C 
ATOM     24  C   UNL     1      20.988 -20.033  -8.474  1.00  0.00    +0.000 C 
ATOM     25  C   UNL     1      22.253 -20.291  -9.293  1.00  0.00    +0.000 C 
ENDBRANCH  19  20
ENDBRANCH   8  19
TORSDOF 2
ENDMDL
MODEL 6
REMARK VINA RESULT:    -7.677      4.102      5.137
REMARK INTER + INTRA:          -8.775
REMARK INTER:                  -8.521
REMARK INTRA:                  -0.253
REMARK UNBOUND:                -0.200
REMARK SMILES O=c1nc(N2CCN(CC3CCCCC3)CC2)sc2nc(Cl)ncc12
REMARK SMILES IDX 1 1 2 2 3 3 4 4 5 5 6 6 7 7 8 8 16 9 17 10 18 11 19 12 20 13
REMARK SMILES IDX 21 14 22 15 23 16 24 17 25 18 9 19 10 20 11 21 15 22 12 23
REMARK SMILES IDX 14 24 13 25
REMARK H PARENT
ROOT
ATOM      1  O   UNL     1      15.652 -18.999   0.274  1.00  0.00    -0.266 OA
ATOM      2  C   UNL     1      15.853 -19.286   1.449  1.00  0.00    +0.284 C 
ATOM      3  N   UNL     1      16.820 -20.170   1.827  1.00  0.00    -0.181 NA
ATOM      4  C   UNL     1      16.845 -20.815   2.951  1.00  0.00    +0.191 C 
ATOM      5  N   UNL     1      17.892 -21.697   3.228  1.00  0.00    -0.345 N 
ATOM      6  C   UNL     1      17.770 -22.799   4.208  1.00  0.00    +0.134 C 
ATOM      7  C   UNL     1      19.143 -23.364   4.635  1.00  0.00    +0.106 C 
ATOM      8  N   UNL     1      20.044 -23.747   3.531  1.00  0.00    -0.300 NA
ATOM      9  C   UNL     1      20.177 -22.577   2.640  1.00  0.00    +0.106 C 
ATOM     10  C   UNL     1      18.847 -21.987   2.128  1.00  0.00    +0.134 C 
ATOM     11  S   UNL     1      15.602 -20.621   4.180  1.00  0.00    -0.078 SA
ATOM     12  C   UNL     1      14.900 -19.076   3.713  1.00  0.00    +0.137 A 
ATOM     13  N   UNL     1      14.159 -18.453   4.656  1.00  0.00    -0.206 NA
ATOM     14  C   UNL     1      13.579 -17.309   4.275  1.00  0.00    +0.223 A 
ATOM     15 Cl   UNL     1      12.643 -16.499   5.446  1.00  0.00    -0.041 Cl
ATOM     16  N   UNL     1      13.654 -16.739   3.065  1.00  0.00    -0.226 NA
ATOM     17  C   UNL     1      14.400 -17.406   2.161  1.00  0.00    +0.131 A 
ATOM     18  C   UNL     1      15.057 -18.582   2.447  1.00  0.00    +0.096 A 
ENDROOT
BRANCH   8  19
ATOM     19  C   UNL     1      19.573 -24.962   2.846  1.00  0.00    +0.088 C 
BRANCH  19  20
ATOM     20  C   UNL     1      20.418 -25.363   1.616  1.00  0.00    +0.003 C 
ATOM     21  C   UNL     1      21.748 -26.032   2.020  1.00  0.00    +0.005 C 
ATOM     22  C   UNL     1      19.613 -26.287   0.691  1.00  0.00    +0.005 C 
ATOM     23  C   UNL     1      22.320 -26.966   0.951  1.00  0.00    +0.000 C 
ATOM     24  C   UNL     1      20.368 -26.596  -0.605  1.00  0.00    +0.000 C 
ATOM     25  C   UNL     1      21.889 -26.564  -0.452  1.00  0.00    +0.000 C 
ENDBRANCH  19  20
ENDBRANCH   8  19
TORSDOF 2
ENDMDL
MODEL 7
REMARK VINA RESULT:    -7.476      2.683      3.781
REMARK INTER + INTRA:          -8.551
REMARK INTER:                  -8.346
REMARK INTRA:                  -0.204
REMARK UNBOUND:                -0.200
REMARK SMILES O=c1nc(N2CCN(CC3CCCCC3)CC2)sc2nc(Cl)ncc12
REMARK SMILES IDX 1 1 2 2 3 3 4 4 5 5 6 6 7 7 8 8 16 9 17 10 18 11 19 12 20 13
REMARK SMILES IDX 21 14 22 15 23 16 24 17 25 18 9 19 10 20 11 21 15 22 12 23
REMARK SMILES IDX 14 24 13 25
REMARK H PARENT
ROOT
ATOM      1  O   UNL     1      15.655 -18.200   0.770  1.00  0.00    -0.266 OA
ATOM      2  C   UNL     1      15.920 -18.868   1.764  1.00  0.00    +0.284 C 
ATOM      3  N   UNL     1      16.993 -19.708   1.812  1.00  0.00    -0.181 NA
ATOM      4  C   UNL     1      17.123 -20.709   2.625  1.00  0.00    +0.191 C 
ATOM      5  N   UNL     1      18.273 -21.501   2.581  1.00  0.00    -0.345 N 
ATOM      6  C   UNL     1      18.306 -22.889   3.092  1.00  0.00    +0.134 C 
ATOM      7  C   UNL     1      19.746 -23.405   3.308  1.00  0.00    +0.106 C 
ATOM      8  N   UNL     1      20.656 -23.251   2.156  1.00  0.00    -0.300 NA
ATOM      9  C   UNL     1      20.628 -21.831   1.754  1.00  0.00    +0.106 C 
ATOM     10  C   UNL     1      19.225 -21.257   1.467  1.00  0.00    +0.134 C 
ATOM     11  S   UNL     1      15.899 -21.122   3.818  1.00  0.00    -0.078 SA
ATOM     12  C   UNL     1      15.010 -19.607   3.932  1.00  0.00    +0.137 A 
ATOM     13  N   UNL     1      14.226 -19.461   5.024  1.00  0.00    -0.206 NA
ATOM     14  C   UNL     1      13.507 -18.334   5.075  1.00  0.00    +0.223 A 
ATOM     15 Cl   UNL     1      12.516 -18.121   6.444  1.00  0.00    -0.041 Cl
ATOM     16  N   UNL     1      13.483 -17.360   4.156  1.00  0.00    -0.226 NA
ATOM     17  C   UNL     1      14.278 -17.560   3.085  1.00  0.00    +0.131 A 
ATOM     18  C   UNL     1      15.075 -18.673   2.935  1.00  0.00    +0.096 A 
ENDROOT
BRANCH   8  19
ATOM     19  C   UNL     1      20.312 -24.182   1.069  1.00  0.00    +0.088 C 
BRANCH  19  20
ATOM     20  C   UNL     1      20.926 -23.812  -0.300  1.00  0.00    +0.003 C 
ATOM     21  C   UNL     1      21.892 -24.899  -0.814  1.00  0.00    +0.005 C 
ATOM     22  C   UNL     1      19.819 -23.548  -1.331  1.00  0.00    +0.005 C 
ATOM     23  C   UNL     1      22.048 -24.917  -2.337  1.00  0.00    +0.000 C 
ATOM     24  C   UNL     1      20.386 -23.046  -2.661  1.00  0.00    +0.000 C 
ATOM     25  C   UNL     1      21.800 -23.548  -2.955  1.00  0.00    +0.000 C 
ENDBRANCH  19  20
ENDBRANCH   8  19
TORSDOF 2
ENDMDL
MODEL 8
REMARK VINA RESULT:    -7.309      4.727      9.900
REMARK INTER + INTRA:          -8.364
REMARK INTER:                  -8.179
REMARK INTRA:                  -0.186
REMARK UNBOUND:                -0.200
REMARK SMILES O=c1nc(N2CCN(CC3CCCCC3)CC2)sc2nc(Cl)ncc12
REMARK SMILES IDX 1 1 2 2 3 3 4 4 5 5 6 6 7 7 8 8 16 9 17 10 18 11 19 12 20 13
REMARK SMILES IDX 21 14 22 15 23 16 24 17 25 18 9 19 10 20 11 21 15 22 12 23
REMARK SMILES IDX 14 24 13 25
REMARK H PARENT
ROOT
ATOM      1  O   UNL     1      19.463 -20.824  -4.734  1.00  0.00    -0.266 OA
ATOM      2  C   UNL     1      19.881 -21.655  -3.936  1.00  0.00    +0.284 C 
ATOM      3  N   UNL     1      19.217 -21.958  -2.784  1.00  0.00    -0.181 NA
ATOM      4  C   UNL     1      19.750 -22.498  -1.733  1.00  0.00    +0.191 C 
ATOM      5  N   UNL     1      18.965 -22.764  -0.609  1.00  0.00    -0.345 N 
ATOM      6  C   UNL     1      19.536 -22.909   0.748  1.00  0.00    +0.134 C 
ATOM      7  C   UNL     1      18.558 -23.589   1.731  1.00  0.00    +0.106 C 
ATOM      8  N   UNL     1      17.207 -22.998   1.795  1.00  0.00    -0.300 NA
ATOM      9  C   UNL     1      16.674 -22.957   0.418  1.00  0.00    +0.106 C 
ATOM     10  C   UNL     1      17.573 -22.245  -0.613  1.00  0.00    +0.134 C 
ATOM     11  S   UNL     1      21.452 -22.934  -1.656  1.00  0.00    -0.078 SA
ATOM     12  C   UNL     1      21.864 -23.004  -3.365  1.00  0.00    +0.137 A 
ATOM     13  N   UNL     1      23.003 -23.664  -3.673  1.00  0.00    -0.206 NA
ATOM     14  C   UNL     1      23.342 -23.662  -4.967  1.00  0.00    +0.223 A 
ATOM     15 Cl   UNL     1      24.770 -24.493  -5.385  1.00  0.00    -0.041 Cl
ATOM     16  N   UNL     1      22.677 -23.069  -5.966  1.00  0.00    -0.226 NA
ATOM     17  C   UNL     1      21.552 -22.419  -5.602  1.00  0.00    +0.131 A 
ATOM     18  C   UNL     1      21.097 -22.370  -4.303  1.00  0.00    +0.096 A 
ENDROOT
BRANCH   8  19
ATOM     19  C   UNL     1      17.223 -21.686   2.463  1.00  0.00    +0.088 C 
BRANCH  19  20
ATOM     20  C   UNL     1      16.150 -21.523   3.563  1.00  0.00    +0.003 C 
ATOM     21  C   UNL     1      16.575 -22.187   4.890  1.00  0.00    +0.005 C 
ATOM     22  C   UNL     1      15.832 -20.038   3.786  1.00  0.00    +0.005 C 
ATOM     23  C   UNL     1      15.910 -21.578   6.126  1.00  0.00    +0.000 C 
ATOM     24  C   UNL     1      14.676 -19.843   4.771  1.00  0.00    +0.000 C 
ATOM     25  C   UNL     1      14.556 -20.963   5.805  1.00  0.00    +0.000 C 
ENDBRANCH  19  20
ENDBRANCH   8  19
TORSDOF 2
ENDMDL
MODEL 9
REMARK VINA RESULT:    -7.259      5.768     10.650
REMARK INTER + INTRA:          -8.308
REMARK INTER:                  -8.084
REMARK INTRA:                  -0.223
REMARK UNBOUND:                -0.200
REMARK SMILES O=c1nc(N2CCN(CC3CCCCC3)CC2)sc2nc(Cl)ncc12
REMARK SMILES IDX 1 1 2 2 3 3 4 4 5 5 6 6 7 7 8 8 16 9 17 10 18 11 19 12 20 13
REMARK SMILES IDX 21 14 22 15 23 16 24 17 25 18 9 19 10 20 11 21 15 22 12 23
REMARK SMILES IDX 14 24 13 25
REMARK H PARENT
ROOT
ATOM      1  O   UNL     1      20.251 -20.393  -7.491  1.00  0.00    -0.266 OA
ATOM      2  C   UNL     1      20.720 -21.216  -6.712  1.00  0.00    +0.284 C 
ATOM      3  N   UNL     1      20.151 -21.478  -5.500  1.00  0.00    -0.181 NA
ATOM      4  C   UNL     1      20.762 -22.006  -4.486  1.00  0.00    +0.191 C 
ATOM      5  N   UNL     1      20.071 -22.228  -3.293  1.00  0.00    -0.345 N 
ATOM      6  C   UNL     1      20.755 -22.356  -1.986  1.00  0.00    +0.134 C 
ATOM      7  C   UNL     1      19.851 -22.991  -0.906  1.00  0.00    +0.106 C 
ATOM      8  N   UNL     1      18.524 -22.367  -0.741  1.00  0.00    -0.300 NA
ATOM      9  C   UNL     1      17.875 -22.345  -2.067  1.00  0.00    +0.106 C 
ATOM     10  C   UNL     1      18.695 -21.677  -3.189  1.00  0.00    +0.134 C 
ATOM     11  S   UNL     1      22.454 -22.479  -4.544  1.00  0.00    -0.078 SA
ATOM     12  C   UNL     1      22.715 -22.597  -6.281  1.00  0.00    +0.137 A 
ATOM     13  N   UNL     1      23.809 -23.290  -6.669  1.00  0.00    -0.206 NA
ATOM     14  C   UNL     1      24.035 -23.325  -7.987  1.00  0.00    +0.223 A 
ATOM     15 Cl   UNL     1      25.403 -24.199  -8.506  1.00  0.00    -0.041 Cl
ATOM     16  N   UNL     1      23.298 -22.739  -8.940  1.00  0.00    -0.226 NA
ATOM     17  C   UNL     1      22.223 -22.055  -8.497  1.00  0.00    +0.131 A 
ATOM     18  C   UNL     1      21.884 -21.966  -7.165  1.00  0.00    +0.096 A 
ENDROOT
BRANCH   8  19
ATOM     19  C   UNL     1      18.626 -21.041  -0.109  1.00  0.00    +0.088 C 
BRANCH  19  20
ATOM     20  C   UNL     1      18.030 -20.972   1.315  1.00  0.00    +0.003 C 
ATOM     21  C   UNL     1      17.274 -19.650   1.563  1.00  0.00    +0.005 C 
ATOM     22  C   UNL     1      17.108 -22.173   1.570  1.00  0.00    +0.005 C 
ATOM     23  C   UNL     1      16.192 -19.750   2.642  1.00  0.00    +0.000 C 
ATOM     24  C   UNL     1      16.606 -22.211   3.016  1.00  0.00    +0.000 C 
ATOM     25  C   UNL     1      16.502 -20.831   3.666  1.00  0.00    +0.000 C 
ENDBRANCH  19  20
ENDBRANCH   8  19
TORSDOF 2
ENDMDL
