MODEL 1
REMARK VINA RESULT:    -9.478      0.000      0.000
REMARK INTER + INTRA:         -14.154
REMARK INTER:                 -13.079
REMARK INTRA:                  -1.075
REMARK UNBOUND:                -1.075
REMARK SMILES O=C(O)c1nc2ccc(C(F)(F)F)cc2nc1NCc1ccc(C(F)(F)F)cc1
REMARK SMILES IDX 18 1 17 3 4 4 5 5 6 6 16 7 7 8 15 9 8 10 14 11 9 12 2 13
REMARK SMILES IDX 1 14 3 15 10 17 11 18 12 19 13 20 19 21 20 22 21 23 29 24
REMARK SMILES IDX 22 25 28 26 23 27 24 28 25 29 26 30 27 31
REMARK H PARENT 18 2 3 16
ROOT
ATOM      1  N   UNL     1      18.570 -22.326   4.962  1.00  0.00    -0.364 N 
ATOM      2  H   UNL     1      19.311 -22.782   5.500  1.00  0.00    +0.162 HD
ENDROOT
BRANCH   1   3
ATOM      3  C   UNL     1      18.888 -22.367   3.596  1.00  0.00    +0.160 A 
ATOM      4  C   UNL     1      19.988 -23.087   3.100  1.00  0.00    +0.191 A 
ATOM      5  N   UNL     1      20.376 -23.047   1.792  1.00  0.00    -0.236 NA
ATOM      6  C   UNL     1      19.649 -22.271   0.976  1.00  0.00    +0.090 A 
ATOM      7  N   UNL     1      18.169 -21.590   2.747  1.00  0.00    -0.227 NA
ATOM      8  C   UNL     1      19.988 -22.185  -0.368  1.00  0.00    +0.031 A 
ATOM      9  C   UNL     1      18.538 -21.541   1.454  1.00  0.00    +0.092 A 
ATOM     10  C   UNL     1      19.254 -21.390  -1.253  1.00  0.00    +0.015 A 
ATOM     11  C   UNL     1      17.814 -20.754   0.567  1.00  0.00    +0.043 A 
ATOM     12  C   UNL     1      18.158 -20.657  -0.791  1.00  0.00    +0.058 A 
BRANCH   4  13
ATOM     13  C   UNL     1      20.821 -23.973   3.963  1.00  0.00    +0.358 C 
ATOM     14  O   UNL     1      20.781 -25.190   4.006  1.00  0.00    -0.244 OA
BRANCH  13  15
ATOM     15  O   UNL     1      21.637 -23.296   4.805  1.00  0.00    -0.476 OA
ATOM     16  H   UNL     1      21.909 -22.521   4.265  1.00  0.00    +0.297 HD
ENDBRANCH  13  15
ENDBRANCH   4  13
BRANCH  12  17
ATOM     17  C   UNL     1      17.334 -19.809  -1.727  1.00  0.00    +0.416 C 
ATOM     18  F   UNL     1      17.731 -18.507  -1.749  1.00  0.00    -0.166 F 
ATOM     19  F   UNL     1      16.018 -19.795  -1.383  1.00  0.00    -0.166 F 
ATOM     20  F   UNL     1      17.382 -20.236  -3.019  1.00  0.00    -0.166 F 
ENDBRANCH  12  17
ENDBRANCH   1   3
BRANCH   1  21
ATOM     21  C   UNL     1      17.249 -22.822   5.314  1.00  0.00    +0.150 C 
BRANCH  21  22
ATOM     22  C   UNL     1      16.301 -21.647   5.421  1.00  0.00    -0.029 A 
ATOM     23  C   UNL     1      16.647 -20.512   6.165  1.00  0.00    +0.006 A 
ATOM     24  C   UNL     1      15.068 -21.672   4.754  1.00  0.00    +0.006 A 
ATOM     25  C   UNL     1      15.771 -19.426   6.249  1.00  0.00    +0.013 A 
ATOM     26  C   UNL     1      14.193 -20.587   4.836  1.00  0.00    +0.013 A 
ATOM     27  C   UNL     1      14.538 -19.449   5.580  1.00  0.00    +0.056 A 
BRANCH  27  28
ATOM     28  C   UNL     1      13.584 -18.285   5.689  1.00  0.00    +0.416 C 
ATOM     29  F   UNL     1      14.227 -17.110   5.932  1.00  0.00    -0.166 F 
ATOM     30  F   UNL     1      12.672 -18.429   6.691  1.00  0.00    -0.166 F 
ATOM     31  F   UNL     1      12.856 -18.084   4.554  1.00  0.00    -0.166 F 
ENDBRANCH  27  28
ENDBRANCH  21  22
ENDBRANCH   1  21
TORSDOF 7
ENDMDL
MODEL 2
REMARK VINA RESULT:    -9.335      4.366      7.702
REMARK INTER + INTRA:         -13.958
REMARK INTER:                 -12.918
REMARK INTRA:                  -1.039
REMARK UNBOUND:                -1.075
REMARK SMILES O=C(O)c1nc2ccc(C(F)(F)F)cc2nc1NCc1ccc(C(F)(F)F)cc1
REMARK SMILES IDX 18 1 17 3 4 4 5 5 6 6 16 7 7 8 15 9 8 10 14 11 9 12 2 13
REMARK SMILES IDX 1 14 3 15 10 17 11 18 12 19 13 20 19 21 20 22 21 23 29 24
REMARK SMILES IDX 22 25 28 26 23 27 24 28 25 29 26 30 27 31
REMARK H PARENT 18 2 3 16
ROOT
ATOM      1  N   UNL     1      18.127 -20.774   0.872  1.00  0.00    -0.364 N 
ATOM      2  H   UNL     1      17.850 -21.416   0.125  1.00  0.00    +0.162 HD
ENDROOT
BRANCH   1   3
ATOM      3  C   UNL     1      17.092 -19.856   1.108  1.00  0.00    +0.160 A 
ATOM      4  C   UNL     1      16.766 -18.838   0.197  1.00  0.00    +0.191 A 
ATOM      5  N   UNL     1      15.839 -17.871   0.460  1.00  0.00    -0.236 NA
ATOM      6  C   UNL     1      15.237 -17.929   1.656  1.00  0.00    +0.090 A 
ATOM      7  N   UNL     1      16.466 -19.892   2.312  1.00  0.00    -0.227 NA
ATOM      8  C   UNL     1      14.283 -16.977   1.989  1.00  0.00    +0.031 A 
ATOM      9  C   UNL     1      15.549 -18.946   2.586  1.00  0.00    +0.092 A 
ATOM     10  C   UNL     1      13.629 -17.004   3.224  1.00  0.00    +0.015 A 
ATOM     11  C   UNL     1      14.894 -18.966   3.811  1.00  0.00    +0.043 A 
ATOM     12  C   UNL     1      13.935 -18.000   4.156  1.00  0.00    +0.058 A 
BRANCH   4  13
ATOM     13  C   UNL     1      17.398 -18.735  -1.150  1.00  0.00    +0.358 C 
ATOM     14  O   UNL     1      18.074 -17.811  -1.566  1.00  0.00    -0.244 OA
BRANCH  13  15
ATOM     15  O   UNL     1      17.099 -19.771  -1.968  1.00  0.00    -0.476 OA
ATOM     16  H   UNL     1      16.393 -20.242  -1.472  1.00  0.00    +0.297 HD
ENDBRANCH  13  15
ENDBRANCH   4  13
BRANCH  12  17
ATOM     17  C   UNL     1      13.229 -18.067   5.487  1.00  0.00    +0.416 C 
ATOM     18  F   UNL     1      12.170 -18.923   5.481  1.00  0.00    -0.166 F 
ATOM     19  F   UNL     1      12.735 -16.859   5.868  1.00  0.00    -0.166 F 
ATOM     20  F   UNL     1      14.037 -18.481   6.502  1.00  0.00    -0.166 F 
ENDBRANCH  12  17
ENDBRANCH   1   3
BRANCH   1  21
ATOM     21  C   UNL     1      18.623 -21.475   2.046  1.00  0.00    +0.150 C 
BRANCH  21  22
ATOM     22  C   UNL     1      18.313 -22.949   1.900  1.00  0.00    -0.029 A 
ATOM     23  C   UNL     1      18.230 -23.779   3.025  1.00  0.00    +0.006 A 
ATOM     24  C   UNL     1      18.079 -23.499   0.632  1.00  0.00    +0.006 A 
ATOM     25  C   UNL     1      17.931 -25.137   2.884  1.00  0.00    +0.013 A 
ATOM     26  C   UNL     1      17.779 -24.856   0.489  1.00  0.00    +0.013 A 
ATOM     27  C   UNL     1      17.695 -25.688   1.615  1.00  0.00    +0.056 A 
BRANCH  27  28
ATOM     28  C   UNL     1      17.393 -27.158   1.461  1.00  0.00    +0.416 C 
ATOM     29  F   UNL     1      16.888 -27.705   2.601  1.00  0.00    -0.166 F 
ATOM     30  F   UNL     1      18.489 -27.902   1.141  1.00  0.00    -0.166 F 
ATOM     31  F   UNL     1      16.475 -27.415   0.486  1.00  0.00    -0.166 F 
ENDBRANCH  27  28
ENDBRANCH  21  22
ENDBRANCH   1  21
TORSDOF 7
ENDMDL
MODEL 3
REMARK VINA RESULT:    -9.198      4.138      5.295
REMARK INTER + INTRA:         -13.768
REMARK INTER:                 -12.734
REMARK INTRA:                  -1.034
REMARK UNBOUND:                -1.075
REMARK SMILES O=C(O)c1nc2ccc(C(F)(F)F)cc2nc1NCc1ccc(C(F)(F)F)cc1
REMARK SMILES IDX 18 1 17 3 4 4 5 5 6 6 16 7 7 8 15 9 8 10 14 11 9 12 2 13
REMARK SMILES IDX 1 14 3 15 10 17 11 18 12 19 13 20 19 21 20 22 21 23 29 24
REMARK SMILES IDX 22 25 28 26 23 27 24 28 25 29 26 30 27 31
REMARK H PARENT 18 2 3 16
ROOT
ATOM      1  N   UNL     1      15.619 -19.434  -0.153  1.00  0.00    -0.364 N 
ATOM      2  H   UNL     1      15.252 -19.135  -1.060  1.00  0.00    +0.162 HD
ENDROOT
BRANCH   1   3
ATOM      3  C   UNL     1      16.515 -20.498  -0.337  1.00  0.00    +0.160 A 
ATOM      4  C   UNL     1      16.230 -21.586  -1.178  1.00  0.00    +0.191 A 
ATOM      5  N   UNL     1      17.039 -22.680  -1.282  1.00  0.00    -0.236 NA
ATOM      6  C   UNL     1      18.147 -22.678  -0.528  1.00  0.00    +0.090 A 
ATOM      7  N   UNL     1      17.644 -20.521   0.415  1.00  0.00    -0.227 NA
ATOM      8  C   UNL     1      19.016 -23.759  -0.585  1.00  0.00    +0.031 A 
ATOM      9  C   UNL     1      18.454 -21.592   0.323  1.00  0.00    +0.092 A 
ATOM     10  C   UNL     1      20.184 -23.795   0.182  1.00  0.00    +0.015 A 
ATOM     11  C   UNL     1      19.617 -21.636   1.083  1.00  0.00    +0.043 A 
ATOM     12  C   UNL     1      20.494 -22.731   1.034  1.00  0.00    +0.058 A 
BRANCH   4  13
ATOM     13  C   UNL     1      15.018 -21.632  -2.046  1.00  0.00    +0.358 C 
ATOM     14  O   UNL     1      13.859 -21.696  -1.673  1.00  0.00    -0.244 OA
BRANCH  13  15
ATOM     15  O   UNL     1      15.301 -21.671  -3.369  1.00  0.00    -0.476 OA
ATOM     16  H   UNL     1      14.517 -22.130  -3.744  1.00  0.00    +0.297 HD
ENDBRANCH  13  15
ENDBRANCH   4  13
BRANCH  12  17
ATOM     17  C   UNL     1      21.758 -22.732   1.857  1.00  0.00    +0.416 C 
ATOM     18  F   UNL     1      22.736 -23.514   1.323  1.00  0.00    -0.166 F 
ATOM     19  F   UNL     1      21.550 -23.198   3.117  1.00  0.00    -0.166 F 
ATOM     20  F   UNL     1      22.306 -21.494   1.998  1.00  0.00    -0.166 F 
ENDBRANCH  12  17
ENDBRANCH   1   3
BRANCH   1  21
ATOM     21  C   UNL     1      16.122 -18.319   0.633  1.00  0.00    +0.150 C 
BRANCH  21  22
ATOM     22  C   UNL     1      15.289 -18.192   1.889  1.00  0.00    -0.029 A 
ATOM     23  C   UNL     1      15.443 -19.098   2.947  1.00  0.00    +0.006 A 
ATOM     24  C   UNL     1      14.364 -17.147   2.020  1.00  0.00    +0.006 A 
ATOM     25  C   UNL     1      14.678 -18.967   4.109  1.00  0.00    +0.013 A 
ATOM     26  C   UNL     1      13.599 -17.015   3.182  1.00  0.00    +0.013 A 
ATOM     27  C   UNL     1      13.753 -17.920   4.241  1.00  0.00    +0.056 A 
BRANCH  27  28
ATOM     28  C   UNL     1      12.913 -17.792   5.488  1.00  0.00    +0.416 C 
ATOM     29  F   UNL     1      11.764 -18.520   5.415  1.00  0.00    -0.166 F 
ATOM     30  F   UNL     1      12.530 -16.511   5.749  1.00  0.00    -0.166 F 
ATOM     31  F   UNL     1      13.556 -18.222   6.611  1.00  0.00    -0.166 F 
ENDBRANCH  27  28
ENDBRANCH  21  22
ENDBRANCH   1  21
TORSDOF 7
ENDMDL
MODEL 4
REMARK VINA RESULT:    -9.026      4.433      7.842
REMARK INTER + INTRA:         -13.530
REMARK INTER:                 -12.555
REMARK INTRA:                  -0.975
REMARK UNBOUND:                -1.075
REMARK SMILES O=C(O)c1nc2ccc(C(F)(F)F)cc2nc1NCc1ccc(C(F)(F)F)cc1
REMARK SMILES IDX 18 1 17 3 4 4 5 5 6 6 16 7 7 8 15 9 8 10 14 11 9 12 2 13
REMARK SMILES IDX 1 14 3 15 10 17 11 18 12 19 13 20 19 21 20 22 21 23 29 24
REMARK SMILES IDX 22 25 28 26 23 27 24 28 25 29 26 30 27 31
REMARK H PARENT 18 2 3 16
ROOT
ATOM      1  N   UNL     1      17.919 -20.940   0.971  1.00  0.00    -0.364 N 
ATOM      2  H   UNL     1      18.081 -21.049  -0.033  1.00  0.00    +0.162 HD
ENDROOT
BRANCH   1   3
ATOM      3  C   UNL     1      16.931 -19.965   1.184  1.00  0.00    +0.160 A 
ATOM      4  C   UNL     1      16.656 -18.955   0.248  1.00  0.00    +0.191 A 
ATOM      5  N   UNL     1      15.779 -17.937   0.487  1.00  0.00    -0.236 NA
ATOM      6  C   UNL     1      15.175 -17.937   1.683  1.00  0.00    +0.090 A 
ATOM      7  N   UNL     1      16.305 -19.942   2.388  1.00  0.00    -0.227 NA
ATOM      8  C   UNL     1      14.269 -16.930   1.993  1.00  0.00    +0.031 A 
ATOM      9  C   UNL     1      15.436 -18.945   2.638  1.00  0.00    +0.092 A 
ATOM     10  C   UNL     1      13.615 -16.895   3.227  1.00  0.00    +0.015 A 
ATOM     11  C   UNL     1      14.782 -18.903   3.863  1.00  0.00    +0.043 A 
ATOM     12  C   UNL     1      13.872 -17.882   4.183  1.00  0.00    +0.058 A 
BRANCH   4  13
ATOM     13  C   UNL     1      17.292 -18.916  -1.101  1.00  0.00    +0.358 C 
ATOM     14  O   UNL     1      18.012 -18.036  -1.539  1.00  0.00    -0.244 OA
BRANCH  13  15
ATOM     15  O   UNL     1      16.944 -19.957  -1.893  1.00  0.00    -0.476 OA
ATOM     16  H   UNL     1      17.742 -20.530  -1.860  1.00  0.00    +0.297 HD
ENDBRANCH  13  15
ENDBRANCH   4  13
BRANCH  12  17
ATOM     17  C   UNL     1      13.164 -17.882   5.515  1.00  0.00    +0.416 C 
ATOM     18  F   UNL     1      12.605 -16.678   5.817  1.00  0.00    -0.166 F 
ATOM     19  F   UNL     1      14.005 -18.174   6.543  1.00  0.00    -0.166 F 
ATOM     20  F   UNL     1      12.153 -18.791   5.585  1.00  0.00    -0.166 F 
ENDBRANCH  12  17
ENDBRANCH   1   3
BRANCH   1  21
ATOM     21  C   UNL     1      17.698 -22.213   1.636  1.00  0.00    +0.150 C 
BRANCH  21  22
ATOM     22  C   UNL     1      19.009 -22.693   2.220  1.00  0.00    -0.029 A 
ATOM     23  C   UNL     1      20.213 -22.508   1.528  1.00  0.00    +0.006 A 
ATOM     24  C   UNL     1      19.038 -23.309   3.479  1.00  0.00    +0.006 A 
ATOM     25  C   UNL     1      21.421 -22.942   2.079  1.00  0.00    +0.013 A 
ATOM     26  C   UNL     1      20.245 -23.742   4.032  1.00  0.00    +0.013 A 
ATOM     27  C   UNL     1      21.451 -23.557   3.340  1.00  0.00    +0.056 A 
BRANCH  27  28
ATOM     28  C   UNL     1      22.753 -24.045   3.925  1.00  0.00    +0.416 C 
ATOM     29  F   UNL     1      23.669 -24.352   2.966  1.00  0.00    -0.166 F 
ATOM     30  F   UNL     1      22.615 -25.167   4.686  1.00  0.00    -0.166 F 
ATOM     31  F   UNL     1      23.353 -23.124   4.732  1.00  0.00    -0.166 F 
ENDBRANCH  27  28
ENDBRANCH  21  22
ENDBRANCH   1  21
TORSDOF 7
ENDMDL
MODEL 5
REMARK VINA RESULT:    -8.999      4.149      5.323
REMARK INTER + INTRA:         -13.493
REMARK INTER:                 -12.750
REMARK INTRA:                  -0.743
REMARK UNBOUND:                -1.075
REMARK SMILES O=C(O)c1nc2ccc(C(F)(F)F)cc2nc1NCc1ccc(C(F)(F)F)cc1
REMARK SMILES IDX 18 1 17 3 4 4 5 5 6 6 16 7 7 8 15 9 8 10 14 11 9 12 2 13
REMARK SMILES IDX 1 14 3 15 10 17 11 18 12 19 13 20 19 21 20 22 21 23 29 24
REMARK SMILES IDX 22 25 28 26 23 27 24 28 25 29 26 30 27 31
REMARK H PARENT 18 2 3 16
ROOT
ATOM      1  N   UNL     1      16.072 -19.645   0.270  1.00  0.00    -0.364 N 
ATOM      2  H   UNL     1      15.682 -19.710  -0.673  1.00  0.00    +0.162 HD
ENDROOT
BRANCH   1   3
ATOM      3  C   UNL     1      17.288 -20.346   0.323  1.00  0.00    +0.160 A 
ATOM      4  C   UNL     1      18.108 -20.520  -0.804  1.00  0.00    +0.191 A 
ATOM      5  N   UNL     1      19.233 -21.291  -0.794  1.00  0.00    -0.236 NA
ATOM      6  C   UNL     1      19.534 -21.896   0.363  1.00  0.00    +0.090 A 
ATOM      7  N   UNL     1      17.616 -20.969   1.484  1.00  0.00    -0.227 NA
ATOM      8  C   UNL     1      20.667 -22.696   0.444  1.00  0.00    +0.031 A 
ATOM      9  C   UNL     1      18.724 -21.733   1.509  1.00  0.00    +0.092 A 
ATOM     10  C   UNL     1      21.018 -23.341   1.633  1.00  0.00    +0.015 A 
ATOM     11  C   UNL     1      19.080 -22.378   2.687  1.00  0.00    +0.043 A 
ATOM     12  C   UNL     1      20.220 -23.194   2.771  1.00  0.00    +0.058 A 
BRANCH   4  13
ATOM     13  C   UNL     1      17.824 -19.860  -2.111  1.00  0.00    +0.358 C 
ATOM     14  O   UNL     1      17.800 -20.397  -3.205  1.00  0.00    -0.244 OA
BRANCH  13  15
ATOM     15  O   UNL     1      17.649 -18.521  -2.014  1.00  0.00    -0.476 OA
ATOM     16  H   UNL     1      17.022 -18.332  -2.747  1.00  0.00    +0.297 HD
ENDBRANCH  13  15
ENDBRANCH   4  13
BRANCH  12  17
ATOM     17  C   UNL     1      20.587 -23.860   4.073  1.00  0.00    +0.416 C 
ATOM     18  F   UNL     1      21.804 -23.470   4.542  1.00  0.00    -0.166 F 
ATOM     19  F   UNL     1      20.644 -25.214   3.959  1.00  0.00    -0.166 F 
ATOM     20  F   UNL     1      19.701 -23.603   5.074  1.00  0.00    -0.166 F 
ENDBRANCH  12  17
ENDBRANCH   1   3
BRANCH   1  21
ATOM     21  C   UNL     1      16.117 -18.275   0.755  1.00  0.00    +0.150 C 
BRANCH  21  22
ATOM     22  C   UNL     1      15.248 -18.167   1.988  1.00  0.00    -0.029 A 
ATOM     23  C   UNL     1      15.387 -19.075   3.046  1.00  0.00    +0.006 A 
ATOM     24  C   UNL     1      14.304 -17.135   2.099  1.00  0.00    +0.006 A 
ATOM     25  C   UNL     1      14.588 -18.960   4.188  1.00  0.00    +0.013 A 
ATOM     26  C   UNL     1      13.507 -17.019   3.239  1.00  0.00    +0.013 A 
ATOM     27  C   UNL     1      13.645 -17.927   4.299  1.00  0.00    +0.056 A 
BRANCH  27  28
ATOM     28  C   UNL     1      12.769 -17.818   5.523  1.00  0.00    +0.416 C 
ATOM     29  F   UNL     1      13.400 -18.246   6.651  1.00  0.00    -0.166 F 
ATOM     30  F   UNL     1      11.624 -18.550   5.431  1.00  0.00    -0.166 F 
ATOM     31  F   UNL     1      12.371 -16.540   5.781  1.00  0.00    -0.166 F 
ENDBRANCH  27  28
ENDBRANCH  21  22
ENDBRANCH   1  21
TORSDOF 7
ENDMDL
MODEL 6
REMARK VINA RESULT:    -8.952      2.071      7.691
REMARK INTER + INTRA:         -13.428
REMARK INTER:                 -12.461
REMARK INTRA:                  -0.967
REMARK UNBOUND:                -1.075
REMARK SMILES O=C(O)c1nc2ccc(C(F)(F)F)cc2nc1NCc1ccc(C(F)(F)F)cc1
REMARK SMILES IDX 18 1 17 3 4 4 5 5 6 6 16 7 7 8 15 9 8 10 14 11 9 12 2 13
REMARK SMILES IDX 1 14 3 15 10 17 11 18 12 19 13 20 19 21 20 22 21 23 29 24
REMARK SMILES IDX 22 25 28 26 23 27 24 28 25 29 26 30 27 31
REMARK H PARENT 18 2 3 16
ROOT
ATOM      1  N   UNL     1      17.890 -22.367   1.877  1.00  0.00    -0.364 N 
ATOM      2  H   UNL     1      18.796 -21.978   1.605  1.00  0.00    +0.162 HD
ENDROOT
BRANCH   1   3
ATOM      3  C   UNL     1      17.404 -21.683   3.003  1.00  0.00    +0.160 A 
ATOM      4  C   UNL     1      17.775 -22.029   4.312  1.00  0.00    +0.191 A 
ATOM      5  N   UNL     1      17.227 -21.448   5.419  1.00  0.00    -0.236 NA
ATOM      6  C   UNL     1      16.294 -20.511   5.203  1.00  0.00    +0.090 A 
ATOM      7  N   UNL     1      16.457 -20.730   2.812  1.00  0.00    -0.227 NA
ATOM      8  C   UNL     1      15.696 -19.878   6.286  1.00  0.00    +0.031 A 
ATOM      9  C   UNL     1      15.909 -20.147   3.894  1.00  0.00    +0.092 A 
ATOM     10  C   UNL     1      14.722 -18.893   6.104  1.00  0.00    +0.015 A 
ATOM     11  C   UNL     1      14.939 -19.166   3.722  1.00  0.00    +0.043 A 
ATOM     12  C   UNL     1      14.326 -18.530   4.814  1.00  0.00    +0.058 A 
BRANCH   4  13
ATOM     13  C   UNL     1      18.816 -23.056   4.607  1.00  0.00    +0.358 C 
ATOM     14  O   UNL     1      18.839 -24.204   4.198  1.00  0.00    -0.244 OA
BRANCH  13  15
ATOM     15  O   UNL     1      19.766 -22.631   5.471  1.00  0.00    -0.476 OA
ATOM     16  H   UNL     1      20.597 -22.946   5.050  1.00  0.00    +0.297 HD
ENDBRANCH  13  15
ENDBRANCH   4  13
BRANCH  12  17
ATOM     17  C   UNL     1      13.293 -17.455   4.587  1.00  0.00    +0.416 C 
ATOM     18  F   UNL     1      13.201 -17.076   3.282  1.00  0.00    -0.166 F 
ATOM     19  F   UNL     1      13.568 -16.323   5.288  1.00  0.00    -0.166 F 
ATOM     20  F   UNL     1      12.037 -17.831   4.955  1.00  0.00    -0.166 F 
ENDBRANCH  12  17
ENDBRANCH   1   3
BRANCH   1  21
ATOM     21  C   UNL     1      16.970 -22.462   0.755  1.00  0.00    +0.150 C 
BRANCH  21  22
ATOM     22  C   UNL     1      17.750 -22.291  -0.530  1.00  0.00    -0.029 A 
ATOM     23  C   UNL     1      17.304 -21.417  -1.530  1.00  0.00    +0.006 A 
ATOM     24  C   UNL     1      18.949 -22.990  -0.726  1.00  0.00    +0.006 A 
ATOM     25  C   UNL     1      18.037 -21.255  -2.708  1.00  0.00    +0.013 A 
ATOM     26  C   UNL     1      19.683 -22.829  -1.903  1.00  0.00    +0.013 A 
ATOM     27  C   UNL     1      19.238 -21.954  -2.905  1.00  0.00    +0.056 A 
BRANCH  27  28
ATOM     28  C   UNL     1      20.017 -21.794  -4.187  1.00  0.00    +0.416 C 
ATOM     29  F   UNL     1      19.462 -20.871  -5.019  1.00  0.00    -0.166 F 
ATOM     30  F   UNL     1      20.105 -22.946  -4.909  1.00  0.00    -0.166 F 
ATOM     31  F   UNL     1      21.302 -21.388  -3.982  1.00  0.00    -0.166 F 
ENDBRANCH  27  28
ENDBRANCH  21  22
ENDBRANCH   1  21
TORSDOF 7
ENDMDL
MODEL 7
REMARK VINA RESULT:    -8.760      4.079      5.047
REMARK INTER + INTRA:         -13.164
REMARK INTER:                 -12.213
REMARK INTRA:                  -0.950
REMARK UNBOUND:                -1.075
REMARK SMILES O=C(O)c1nc2ccc(C(F)(F)F)cc2nc1NCc1ccc(C(F)(F)F)cc1
REMARK SMILES IDX 18 1 17 3 4 4 5 5 6 6 16 7 7 8 15 9 8 10 14 11 9 12 2 13
REMARK SMILES IDX 1 14 3 15 10 17 11 18 12 19 13 20 19 21 20 22 21 23 29 24
REMARK SMILES IDX 22 25 28 26 23 27 24 28 25 29 26 30 27 31
REMARK H PARENT 18 2 3 16
ROOT
ATOM      1  N   UNL     1      16.605 -20.351   1.001  1.00  0.00    -0.364 N 
ATOM      2  H   UNL     1      16.302 -19.416   0.720  1.00  0.00    +0.162 HD
ENDROOT
BRANCH   1   3
ATOM      3  C   UNL     1      17.624 -20.792   0.141  1.00  0.00    +0.160 A 
ATOM      4  C   UNL     1      17.998 -20.079  -1.010  1.00  0.00    +0.191 A 
ATOM      5  N   UNL     1      18.907 -20.548  -1.914  1.00  0.00    -0.236 NA
ATOM      6  C   UNL     1      19.442 -21.749  -1.656  1.00  0.00    +0.090 A 
ATOM      7  N   UNL     1      18.181 -22.006   0.378  1.00  0.00    -0.227 NA
ATOM      8  C   UNL     1      20.374 -22.286  -2.534  1.00  0.00    +0.031 A 
ATOM      9  C   UNL     1      19.080 -22.482  -0.503  1.00  0.00    +0.092 A 
ATOM     10  C   UNL     1      20.958 -23.535  -2.300  1.00  0.00    +0.015 A 
ATOM     11  C   UNL     1      19.665 -23.722  -0.278  1.00  0.00    +0.043 A 
ATOM     12  C   UNL     1      20.602 -24.272  -1.168  1.00  0.00    +0.058 A 
BRANCH   4  13
ATOM     13  C   UNL     1      17.443 -18.734  -1.336  1.00  0.00    +0.358 C 
ATOM     14  O   UNL     1      18.080 -17.729  -1.602  1.00  0.00    -0.244 OA
BRANCH  13  15
ATOM     15  O   UNL     1      16.093 -18.670  -1.249  1.00  0.00    -0.476 OA
ATOM     16  H   UNL     1      15.941 -17.751  -0.936  1.00  0.00    +0.297 HD
ENDBRANCH  13  15
ENDBRANCH   4  13
BRANCH  12  17
ATOM     17  C   UNL     1      21.232 -25.612  -0.878  1.00  0.00    +0.416 C 
ATOM     18  F   UNL     1      21.603 -26.277  -2.007  1.00  0.00    -0.166 F 
ATOM     19  F   UNL     1      20.387 -26.443  -0.212  1.00  0.00    -0.166 F 
ATOM     20  F   UNL     1      22.354 -25.521  -0.113  1.00  0.00    -0.166 F 
ENDBRANCH  12  17
ENDBRANCH   1   3
BRANCH   1  21
ATOM     21  C   UNL     1      16.905 -20.431   2.421  1.00  0.00    +0.150 C 
BRANCH  21  22
ATOM     22  C   UNL     1      15.847 -19.667   3.186  1.00  0.00    -0.029 A 
ATOM     23  C   UNL     1      15.143 -18.617   2.583  1.00  0.00    +0.006 A 
ATOM     24  C   UNL     1      15.538 -20.020   4.508  1.00  0.00    +0.006 A 
ATOM     25  C   UNL     1      14.158 -17.924   3.293  1.00  0.00    +0.013 A 
ATOM     26  C   UNL     1      14.554 -19.330   5.217  1.00  0.00    +0.013 A 
ATOM     27  C   UNL     1      13.849 -18.278   4.615  1.00  0.00    +0.056 A 
BRANCH  27  28
ATOM     28  C   UNL     1      12.799 -17.516   5.387  1.00  0.00    +0.416 C 
ATOM     29  F   UNL     1      11.662 -17.324   4.664  1.00  0.00    -0.166 F 
ATOM     30  F   UNL     1      13.212 -16.276   5.774  1.00  0.00    -0.166 F 
ATOM     31  F   UNL     1      12.413 -18.151   6.530  1.00  0.00    -0.166 F 
ENDBRANCH  27  28
ENDBRANCH  21  22
ENDBRANCH   1  21
TORSDOF 7
ENDMDL
MODEL 8
REMARK VINA RESULT:    -8.614      2.643      3.713
REMARK INTER + INTRA:         -12.962
REMARK INTER:                 -11.939
REMARK INTRA:                  -1.023
REMARK UNBOUND:                -1.075
REMARK SMILES O=C(O)c1nc2ccc(C(F)(F)F)cc2nc1NCc1ccc(C(F)(F)F)cc1
REMARK SMILES IDX 18 1 17 3 4 4 5 5 6 6 16 7 7 8 15 9 8 10 14 11 9 12 2 13
REMARK SMILES IDX 1 14 3 15 10 17 11 18 12 19 13 20 19 21 20 22 21 23 29 24
REMARK SMILES IDX 22 25 28 26 23 27 24 28 25 29 26 30 27 31
REMARK H PARENT 18 2 3 16
ROOT
ATOM      1  N   UNL     1      16.547 -20.774   0.979  1.00  0.00    -0.364 N 
ATOM      2  H   UNL     1      15.672 -21.041   0.522  1.00  0.00    +0.162 HD
ENDROOT
BRANCH   1   3
ATOM      3  C   UNL     1      17.624 -21.406   0.338  1.00  0.00    +0.160 A 
ATOM      4  C   UNL     1      18.599 -22.131   1.042  1.00  0.00    +0.191 A 
ATOM      5  N   UNL     1      19.710 -22.656   0.449  1.00  0.00    -0.236 NA
ATOM      6  C   UNL     1      19.840 -22.447  -0.869  1.00  0.00    +0.090 A 
ATOM      7  N   UNL     1      17.779 -21.210  -0.996  1.00  0.00    -0.227 NA
ATOM      8  C   UNL     1      20.946 -22.956  -1.537  1.00  0.00    +0.031 A 
ATOM      9  C   UNL     1      18.869 -21.724  -1.597  1.00  0.00    +0.092 A 
ATOM     10  C   UNL     1      21.117 -22.763  -2.911  1.00  0.00    +0.015 A 
ATOM     11  C   UNL     1      19.046 -21.537  -2.962  1.00  0.00    +0.043 A 
ATOM     12  C   UNL     1      20.168 -22.042  -3.640  1.00  0.00    +0.058 A 
BRANCH   4  13
ATOM     13  C   UNL     1      18.497 -22.401   2.505  1.00  0.00    +0.358 C 
ATOM     14  O   UNL     1      17.474 -22.607   3.136  1.00  0.00    -0.244 OA
BRANCH  13  15
ATOM     15  O   UNL     1      19.684 -22.332   3.153  1.00  0.00    -0.476 OA
ATOM     16  H   UNL     1      20.262 -22.907   2.603  1.00  0.00    +0.297 HD
ENDBRANCH  13  15
ENDBRANCH   4  13
BRANCH  12  17
ATOM     17  C   UNL     1      20.315 -21.838  -5.127  1.00  0.00    +0.416 C 
ATOM     18  F   UNL     1      19.892 -22.910  -5.852  1.00  0.00    -0.166 F 
ATOM     19  F   UNL     1      21.608 -21.625  -5.491  1.00  0.00    -0.166 F 
ATOM     20  F   UNL     1      19.610 -20.771  -5.594  1.00  0.00    -0.166 F 
ENDBRANCH  12  17
ENDBRANCH   1   3
BRANCH   1  21
ATOM     21  C   UNL     1      16.669 -19.333   1.136  1.00  0.00    +0.150 C 
BRANCH  21  22
ATOM     22  C   UNL     1      15.679 -18.871   2.182  1.00  0.00    -0.029 A 
ATOM     23  C   UNL     1      15.620 -19.491   3.437  1.00  0.00    +0.006 A 
ATOM     24  C   UNL     1      14.820 -17.795   1.915  1.00  0.00    +0.006 A 
ATOM     25  C   UNL     1      14.711 -19.050   4.403  1.00  0.00    +0.013 A 
ATOM     26  C   UNL     1      13.912 -17.353   2.880  1.00  0.00    +0.013 A 
ATOM     27  C   UNL     1      13.852 -17.973   4.137  1.00  0.00    +0.056 A 
BRANCH  27  28
ATOM     28  C   UNL     1      12.857 -17.511   5.173  1.00  0.00    +0.416 C 
ATOM     29  F   UNL     1      11.616 -17.318   4.648  1.00  0.00    -0.166 F 
ATOM     30  F   UNL     1      13.203 -16.334   5.764  1.00  0.00    -0.166 F 
ATOM     31  F   UNL     1      12.696 -18.403   6.192  1.00  0.00    -0.166 F 
ENDBRANCH  27  28
ENDBRANCH  21  22
ENDBRANCH   1  21
TORSDOF 7
ENDMDL
MODEL 9
REMARK VINA RESULT:    -8.595      3.668      7.564
REMARK INTER + INTRA:         -12.936
REMARK INTER:                 -11.717
REMARK INTRA:                  -1.218
REMARK UNBOUND:                -1.075
REMARK SMILES O=C(O)c1nc2ccc(C(F)(F)F)cc2nc1NCc1ccc(C(F)(F)F)cc1
REMARK SMILES IDX 18 1 17 3 4 4 5 5 6 6 16 7 7 8 15 9 8 10 14 11 9 12 2 13
REMARK SMILES IDX 1 14 3 15 10 17 11 18 12 19 13 20 19 21 20 22 21 23 29 24
REMARK SMILES IDX 22 25 28 26 23 27 24 28 25 29 26 30 27 31
REMARK H PARENT 18 2 3 16
ROOT
ATOM      1  N   UNL     1      18.364 -21.596   1.899  1.00  0.00    -0.364 N 
ATOM      2  H   UNL     1      18.987 -20.824   1.646  1.00  0.00    +0.162 HD
ENDROOT
BRANCH   1   3
ATOM      3  C   UNL     1      17.578 -21.223   3.000  1.00  0.00    +0.160 A 
ATOM      4  C   UNL     1      17.608 -21.921   4.218  1.00  0.00    +0.191 A 
ATOM      5  N   UNL     1      16.771 -21.641   5.259  1.00  0.00    -0.236 NA
ATOM      6  C   UNL     1      15.892 -20.647   5.068  1.00  0.00    +0.090 A 
ATOM      7  N   UNL     1      16.679 -20.220   2.834  1.00  0.00    -0.227 NA
ATOM      8  C   UNL     1      15.011 -20.308   6.087  1.00  0.00    +0.031 A 
ATOM      9  C   UNL     1      15.847 -19.930   3.852  1.00  0.00    +0.092 A 
ATOM     10  C   UNL     1      14.082 -19.276   5.930  1.00  0.00    +0.015 A 
ATOM     11  C   UNL     1      14.920 -18.905   3.704  1.00  0.00    +0.043 A 
ATOM     12  C   UNL     1      14.021 -18.565   4.728  1.00  0.00    +0.058 A 
BRANCH   4  13
ATOM     13  C   UNL     1      18.573 -23.027   4.485  1.00  0.00    +0.358 C 
ATOM     14  O   UNL     1      18.541 -24.149   4.011  1.00  0.00    -0.244 OA
BRANCH  13  15
ATOM     15  O   UNL     1      19.517 -22.711   5.402  1.00  0.00    -0.476 OA
ATOM     16  H   UNL     1      19.902 -23.587   5.626  1.00  0.00    +0.297 HD
ENDBRANCH  13  15
ENDBRANCH   4  13
BRANCH  12  17
ATOM     17  C   UNL     1      13.045 -17.431   4.539  1.00  0.00    +0.416 C 
ATOM     18  F   UNL     1      11.751 -17.811   4.727  1.00  0.00    -0.166 F 
ATOM     19  F   UNL     1      13.104 -16.906   3.286  1.00  0.00    -0.166 F 
ATOM     20  F   UNL     1      13.257 -16.393   5.393  1.00  0.00    -0.166 F 
ENDBRANCH  12  17
ENDBRANCH   1   3
BRANCH   1  21
ATOM     21  C   UNL     1      17.633 -22.113   0.753  1.00  0.00    +0.150 C 
BRANCH  21  22
ATOM     22  C   UNL     1      17.924 -23.592   0.617  1.00  0.00    -0.029 A 
ATOM     23  C   UNL     1      19.239 -24.056   0.495  1.00  0.00    +0.006 A 
ATOM     24  C   UNL     1      16.874 -24.521   0.637  1.00  0.00    +0.006 A 
ATOM     25  C   UNL     1      19.500 -25.425   0.382  1.00  0.00    +0.013 A 
ATOM     26  C   UNL     1      17.133 -25.889   0.526  1.00  0.00    +0.013 A 
ATOM     27  C   UNL     1      18.450 -26.356   0.404  1.00  0.00    +0.056 A 
BRANCH  27  28
ATOM     28  C   UNL     1      18.731 -27.832   0.261  1.00  0.00    +0.416 C 
ATOM     29  F   UNL     1      19.133 -28.163  -0.996  1.00  0.00    -0.166 F 
ATOM     30  F   UNL     1      17.647 -28.613   0.528  1.00  0.00    -0.166 F 
ATOM     31  F   UNL     1      19.716 -28.270   1.096  1.00  0.00    -0.166 F 
ENDBRANCH  27  28
ENDBRANCH  21  22
ENDBRANCH   1  21
TORSDOF 7
ENDMDL
