MODEL 1
REMARK VINA RESULT:    -9.959      0.000      0.000
REMARK INTER + INTRA:         -14.389
REMARK INTER:                 -13.161
REMARK INTRA:                  -1.228
REMARK UNBOUND:                -1.228
REMARK SMILES CC1(c2ccc(S(N)(=O)=O)cc2)NC(=O)N(CC(=O)c2ccc3ccccc3c2)C1=O
REMARK SMILES IDX 1 1 2 2 13 3 14 4 15 5 16 6 30 7 31 8 3 10 4 11 12 12 5 13
REMARK SMILES IDX 11 14 6 15 7 16 9 17 10 18 8 19 17 22 18 23 19 24 20 25
REMARK SMILES IDX 21 26 29 27 22 28 28 29 23 30 27 31 24 32 26 33 25 34
REMARK H PARENT 13 9 8 20 8 21
ROOT
ATOM      1  C   UNL     1      18.407 -22.578  -2.519  1.00  0.00    +0.051 C 
ATOM      2  C   UNL     1      18.421 -21.633  -1.315  1.00  0.00    +0.144 C 
ATOM      3  N   UNL     1      18.812 -20.308  -1.754  1.00  0.00    -0.319 N 
ATOM      4  C   UNL     1      17.855 -19.359  -1.491  1.00  0.00    +0.325 C 
ATOM      5  O   UNL     1      18.001 -18.167  -1.703  1.00  0.00    -0.248 OA
ATOM      6  N   UNL     1      16.759 -19.977  -0.985  1.00  0.00    -0.254 N 
ATOM      7  C   UNL     1      16.972 -21.322  -0.864  1.00  0.00    +0.261 C 
ATOM      8  O   UNL     1      16.151 -22.140  -0.468  1.00  0.00    -0.271 OA
ATOM      9  H   UNL     1      19.729 -20.047  -2.091  1.00  0.00    +0.166 HD
ENDROOT
BRANCH   2  10
ATOM     10  C   UNL     1      19.259 -22.153  -0.146  1.00  0.00    -0.013 A 
ATOM     11  C   UNL     1      19.251 -21.531   1.118  1.00  0.00    +0.008 A 
ATOM     12  C   UNL     1      20.044 -23.312  -0.304  1.00  0.00    +0.008 A 
ATOM     13  C   UNL     1      20.003 -22.041   2.181  1.00  0.00    +0.022 A 
ATOM     14  C   UNL     1      20.798 -23.828   0.753  1.00  0.00    +0.022 A 
ATOM     15  C   UNL     1      20.765 -23.193   1.994  1.00  0.00    +0.082 A 
BRANCH  15  16
ATOM     16  S   UNL     1      21.703 -23.862   3.339  1.00  0.00    +0.238 S 
ATOM     17  O   UNL     1      21.516 -25.292   3.361  1.00  0.00    -0.207 OA
ATOM     18  O   UNL     1      23.012 -23.249   3.336  1.00  0.00    -0.207 OA
BRANCH  16  19
ATOM     19  N   UNL     1      20.897 -23.208   4.666  1.00  0.00    -0.225 NA
ATOM     20  H   UNL     1      21.414 -23.444   5.514  1.00  0.00    +0.137 HD
ATOM     21  H   UNL     1      20.743 -22.203   4.585  1.00  0.00    +0.137 HD
ENDBRANCH  16  19
ENDBRANCH  15  16
ENDBRANCH   2  10
BRANCH   6  22
ATOM     22  C   UNL     1      15.576 -19.288  -0.523  1.00  0.00    +0.211 C 
BRANCH  22  23
ATOM     23  C   UNL     1      15.934 -18.432   0.691  1.00  0.00    +0.182 C 
ATOM     24  O   UNL     1      16.461 -17.322   0.590  1.00  0.00    -0.292 OA
BRANCH  23  25
ATOM     25  C   UNL     1      15.640 -18.976   2.052  1.00  0.00    +0.020 A 
ATOM     26  C   UNL     1      14.676 -18.412   2.892  1.00  0.00    +0.012 A 
ATOM     27  C   UNL     1      16.360 -20.097   2.489  1.00  0.00    +0.020 A 
ATOM     28  C   UNL     1      14.439 -18.962   4.157  1.00  0.00    +0.009 A 
ATOM     29  C   UNL     1      16.131 -20.659   3.756  1.00  0.00    -0.018 A 
ATOM     30  C   UNL     1      15.158 -20.083   4.602  1.00  0.00    -0.018 A 
ATOM     31  C   UNL     1      16.851 -21.780   4.202  1.00  0.00    +0.009 A 
ATOM     32  C   UNL     1      14.929 -20.643   5.869  1.00  0.00    +0.009 A 
ATOM     33  C   UNL     1      16.611 -22.325   5.464  1.00  0.00    +0.001 A 
ATOM     34  C   UNL     1      15.652 -21.758   6.296  1.00  0.00    +0.001 A 
ENDBRANCH  23  25
ENDBRANCH  22  23
ENDBRANCH   6  22
TORSDOF 6
ENDMDL
MODEL 2
REMARK VINA RESULT:    -9.485      3.086      5.066
REMARK INTER + INTRA:         -13.763
REMARK INTER:                 -12.881
REMARK INTRA:                  -0.883
REMARK UNBOUND:                -1.228
REMARK SMILES CC1(c2ccc(S(N)(=O)=O)cc2)NC(=O)N(CC(=O)c2ccc3ccccc3c2)C1=O
REMARK SMILES IDX 1 1 2 2 13 3 14 4 15 5 16 6 30 7 31 8 3 10 4 11 12 12 5 13
REMARK SMILES IDX 11 14 6 15 7 16 9 17 10 18 8 19 17 22 18 23 19 24 20 25
REMARK SMILES IDX 21 26 29 27 22 28 28 29 23 30 27 31 24 32 26 33 25 34
REMARK H PARENT 13 9 8 20 8 21
ROOT
ATOM      1  C   UNL     1      20.440 -24.752   0.990  1.00  0.00    +0.051 C 
ATOM      2  C   UNL     1      19.502 -23.657   0.480  1.00  0.00    +0.144 C 
ATOM      3  N   UNL     1      18.134 -24.130   0.549  1.00  0.00    -0.319 N 
ATOM      4  C   UNL     1      17.341 -23.343   1.347  1.00  0.00    +0.325 C 
ATOM      5  O   UNL     1      16.141 -23.507   1.490  1.00  0.00    -0.248 OA
ATOM      6  N   UNL     1      18.117 -22.397   1.933  1.00  0.00    -0.254 N 
ATOM      7  C   UNL     1      19.414 -22.506   1.514  1.00  0.00    +0.261 C 
ATOM      8  O   UNL     1      20.347 -21.811   1.897  1.00  0.00    -0.271 OA
ATOM      9  H   UNL     1      17.737 -24.867  -0.018  1.00  0.00    +0.166 HD
ENDROOT
BRANCH   2  10
ATOM     10  C   UNL     1      19.886 -23.123  -0.901  1.00  0.00    -0.013 A 
ATOM     11  C   UNL     1      21.192 -23.242  -1.416  1.00  0.00    +0.008 A 
ATOM     12  C   UNL     1      18.909 -22.522  -1.719  1.00  0.00    +0.008 A 
ATOM     13  C   UNL     1      21.513 -22.772  -2.692  1.00  0.00    +0.022 A 
ATOM     14  C   UNL     1      19.222 -22.051  -2.997  1.00  0.00    +0.022 A 
ATOM     15  C   UNL     1      20.522 -22.189  -3.480  1.00  0.00    +0.082 A 
BRANCH  15  16
ATOM     16  S   UNL     1      20.912 -21.611  -5.108  1.00  0.00    +0.238 S 
ATOM     17  O   UNL     1      21.937 -20.601  -5.002  1.00  0.00    -0.207 OA
ATOM     18  O   UNL     1      21.034 -22.753  -5.985  1.00  0.00    -0.207 OA
BRANCH  16  19
ATOM     19  N   UNL     1      19.474 -20.853  -5.547  1.00  0.00    -0.225 NA
ATOM     20  H   UNL     1      19.681 -20.125  -6.234  1.00  0.00    +0.137 HD
ATOM     21  H   UNL     1      18.766 -21.503  -5.889  1.00  0.00    +0.137 HD
ENDBRANCH  16  19
ENDBRANCH  15  16
ENDBRANCH   2  10
BRANCH   6  22
ATOM     22  C   UNL     1      17.615 -21.344   2.785  1.00  0.00    +0.211 C 
BRANCH  22  23
ATOM     23  C   UNL     1      17.129 -20.184   1.919  1.00  0.00    +0.182 C 
ATOM     24  O   UNL     1      17.616 -19.928   0.816  1.00  0.00    -0.292 OA
BRANCH  23  25
ATOM     25  C   UNL     1      16.025 -19.323   2.443  1.00  0.00    +0.020 A 
ATOM     26  C   UNL     1      15.456 -18.293   1.690  1.00  0.00    +0.012 A 
ATOM     27  C   UNL     1      15.548 -19.571   3.738  1.00  0.00    +0.020 A 
ATOM     28  C   UNL     1      14.423 -17.518   2.229  1.00  0.00    +0.009 A 
ATOM     29  C   UNL     1      14.511 -18.800   4.291  1.00  0.00    -0.018 A 
ATOM     30  C   UNL     1      13.942 -17.759   3.525  1.00  0.00    -0.018 A 
ATOM     31  C   UNL     1      14.030 -19.041   5.588  1.00  0.00    +0.009 A 
ATOM     32  C   UNL     1      12.906 -16.987   4.077  1.00  0.00    +0.009 A 
ATOM     33  C   UNL     1      13.000 -18.265   6.121  1.00  0.00    +0.001 A 
ATOM     34  C   UNL     1      12.439 -17.240   5.368  1.00  0.00    +0.001 A 
ENDBRANCH  23  25
ENDBRANCH  22  23
ENDBRANCH   6  22
TORSDOF 6
ENDMDL
MODEL 3
REMARK VINA RESULT:    -9.272      3.109      5.646
REMARK INTER + INTRA:         -13.481
REMARK INTER:                 -11.568
REMARK INTRA:                  -1.913
REMARK UNBOUND:                -1.228
REMARK SMILES CC1(c2ccc(S(N)(=O)=O)cc2)NC(=O)N(CC(=O)c2ccc3ccccc3c2)C1=O
REMARK SMILES IDX 1 1 2 2 13 3 14 4 15 5 16 6 30 7 31 8 3 10 4 11 12 12 5 13
REMARK SMILES IDX 11 14 6 15 7 16 9 17 10 18 8 19 17 22 18 23 19 24 20 25
REMARK SMILES IDX 21 26 29 27 22 28 28 29 23 30 27 31 24 32 26 33 25 34
REMARK H PARENT 13 9 8 20 8 21
ROOT
ATOM      1  C   UNL     1      17.395 -18.283  -1.047  1.00  0.00    +0.051 C 
ATOM      2  C   UNL     1      16.720 -19.430  -0.292  1.00  0.00    +0.144 C 
ATOM      3  N   UNL     1      15.822 -20.128  -1.190  1.00  0.00    -0.319 N 
ATOM      4  C   UNL     1      16.142 -21.456  -1.333  1.00  0.00    +0.325 C 
ATOM      5  O   UNL     1      15.480 -22.252  -1.977  1.00  0.00    -0.248 OA
ATOM      6  N   UNL     1      17.294 -21.700  -0.659  1.00  0.00    -0.254 N 
ATOM      7  C   UNL     1      17.738 -20.569  -0.031  1.00  0.00    +0.261 C 
ATOM      8  O   UNL     1      18.769 -20.475   0.623  1.00  0.00    -0.271 OA
ATOM      9  H   UNL     1      14.967 -19.753  -1.577  1.00  0.00    +0.166 HD
ENDROOT
BRANCH   2  10
ATOM     10  C   UNL     1      16.048 -18.988   1.009  1.00  0.00    -0.013 A 
ATOM     11  C   UNL     1      14.929 -18.133   1.023  1.00  0.00    +0.008 A 
ATOM     12  C   UNL     1      16.524 -19.468   2.245  1.00  0.00    +0.008 A 
ATOM     13  C   UNL     1      14.314 -17.765   2.223  1.00  0.00    +0.022 A 
ATOM     14  C   UNL     1      15.915 -19.106   3.449  1.00  0.00    +0.022 A 
ATOM     15  C   UNL     1      14.805 -18.263   3.429  1.00  0.00    +0.082 A 
BRANCH  15  16
ATOM     16  S   UNL     1      14.019 -17.822   4.953  1.00  0.00    +0.238 S 
ATOM     17  O   UNL     1      13.622 -16.437   4.880  1.00  0.00    -0.207 OA
ATOM     18  O   UNL     1      13.100 -18.875   5.319  1.00  0.00    -0.207 OA
BRANCH  16  19
ATOM     19  N   UNL     1      15.303 -17.940   6.037  1.00  0.00    -0.225 NA
ATOM     20  H   UNL     1      15.297 -17.120   6.646  1.00  0.00    +0.137 HD
ATOM     21  H   UNL     1      15.294 -18.808   6.574  1.00  0.00    +0.137 HD
ENDBRANCH  16  19
ENDBRANCH  15  16
ENDBRANCH   2  10
BRANCH   6  22
ATOM     22  C   UNL     1      17.899 -23.005  -0.525  1.00  0.00    +0.211 C 
BRANCH  22  23
ATOM     23  C   UNL     1      17.155 -23.796   0.549  1.00  0.00    +0.182 C 
ATOM     24  O   UNL     1      16.532 -24.830   0.302  1.00  0.00    -0.292 OA
BRANCH  23  25
ATOM     25  C   UNL     1      17.181 -23.281   1.953  1.00  0.00    +0.020 A 
ATOM     26  C   UNL     1      18.371 -23.111   2.667  1.00  0.00    +0.012 A 
ATOM     27  C   UNL     1      15.961 -22.956   2.564  1.00  0.00    +0.020 A 
ATOM     28  C   UNL     1      18.338 -22.624   3.978  1.00  0.00    +0.009 A 
ATOM     29  C   UNL     1      15.916 -22.465   3.880  1.00  0.00    -0.018 A 
ATOM     30  C   UNL     1      17.121 -22.298   4.597  1.00  0.00    -0.018 A 
ATOM     31  C   UNL     1      14.698 -22.140   4.499  1.00  0.00    +0.009 A 
ATOM     32  C   UNL     1      17.077 -21.809   5.912  1.00  0.00    +0.009 A 
ATOM     33  C   UNL     1      14.671 -21.654   5.807  1.00  0.00    +0.001 A 
ATOM     34  C   UNL     1      15.858 -21.489   6.512  1.00  0.00    +0.001 A 
ENDBRANCH  23  25
ENDBRANCH  22  23
ENDBRANCH   6  22
TORSDOF 6
ENDMDL
MODEL 4
REMARK VINA RESULT:    -9.225      3.149      5.362
REMARK INTER + INTRA:         -13.420
REMARK INTER:                 -12.712
REMARK INTRA:                  -0.708
REMARK UNBOUND:                -1.228
REMARK SMILES CC1(c2ccc(S(N)(=O)=O)cc2)NC(=O)N(CC(=O)c2ccc3ccccc3c2)C1=O
REMARK SMILES IDX 1 1 2 2 13 3 14 4 15 5 16 6 30 7 31 8 3 10 4 11 12 12 5 13
REMARK SMILES IDX 11 14 6 15 7 16 9 17 10 18 8 19 17 22 18 23 19 24 20 25
REMARK SMILES IDX 21 26 29 27 22 28 28 29 23 30 27 31 24 32 26 33 25 34
REMARK H PARENT 13 9 8 20 8 21
ROOT
ATOM      1  C   UNL     1      21.459 -22.746   1.642  1.00  0.00    +0.051 C 
ATOM      2  C   UNL     1      20.157 -22.972   0.870  1.00  0.00    +0.144 C 
ATOM      3  N   UNL     1      19.678 -24.316   1.126  1.00  0.00    -0.319 N 
ATOM      4  C   UNL     1      18.426 -24.334   1.689  1.00  0.00    +0.325 C 
ATOM      5  O   UNL     1      17.796 -25.352   1.919  1.00  0.00    -0.248 OA
ATOM      6  N   UNL     1      18.046 -23.056   1.943  1.00  0.00    -0.254 N 
ATOM      7  C   UNL     1      19.002 -22.174   1.525  1.00  0.00    +0.261 C 
ATOM      8  O   UNL     1      18.953 -20.956   1.653  1.00  0.00    -0.271 OA
ATOM      9  H   UNL     1      20.123 -25.169   0.814  1.00  0.00    +0.166 HD
ENDROOT
BRANCH   2  10
ATOM     10  C   UNL     1      20.271 -22.647  -0.620  1.00  0.00    -0.013 A 
ATOM     11  C   UNL     1      19.231 -22.017  -1.333  1.00  0.00    +0.008 A 
ATOM     12  C   UNL     1      21.459 -22.943  -1.316  1.00  0.00    +0.008 A 
ATOM     13  C   UNL     1      19.369 -21.704  -2.689  1.00  0.00    +0.022 A 
ATOM     14  C   UNL     1      21.606 -22.632  -2.670  1.00  0.00    +0.022 A 
ATOM     15  C   UNL     1      20.561 -22.004  -3.346  1.00  0.00    +0.082 A 
BRANCH  15  16
ATOM     16  S   UNL     1      20.755 -21.590  -5.057  1.00  0.00    +0.238 S 
ATOM     17  O   UNL     1      21.815 -20.618  -5.175  1.00  0.00    -0.207 OA
ATOM     18  O   UNL     1      20.730 -22.810  -5.832  1.00  0.00    -0.207 OA
BRANCH  16  19
ATOM     19  N   UNL     1      19.296 -20.814  -5.381  1.00  0.00    -0.225 NA
ATOM     20  H   UNL     1      18.818 -20.628  -4.498  1.00  0.00    +0.137 HD
ATOM     21  H   UNL     1      19.408 -19.965  -5.935  1.00  0.00    +0.137 HD
ENDBRANCH  16  19
ENDBRANCH  15  16
ENDBRANCH   2  10
BRANCH   6  22
ATOM     22  C   UNL     1      16.754 -22.680   2.469  1.00  0.00    +0.211 C 
BRANCH  22  23
ATOM     23  C   UNL     1      16.910 -22.257   3.929  1.00  0.00    +0.182 C 
ATOM     24  O   UNL     1      17.824 -22.665   4.646  1.00  0.00    -0.292 OA
BRANCH  23  25
ATOM     25  C   UNL     1      15.899 -21.316   4.504  1.00  0.00    +0.020 A 
ATOM     26  C   UNL     1      15.263 -21.555   5.725  1.00  0.00    +0.012 A 
ATOM     27  C   UNL     1      15.589 -20.153   3.785  1.00  0.00    +0.020 A 
ATOM     28  C   UNL     1      14.325 -20.641   6.218  1.00  0.00    +0.009 A 
ATOM     29  C   UNL     1      14.650 -19.228   4.270  1.00  0.00    -0.018 A 
ATOM     30  C   UNL     1      14.009 -19.476   5.503  1.00  0.00    -0.018 A 
ATOM     31  C   UNL     1      14.333 -18.062   3.553  1.00  0.00    +0.009 A 
ATOM     32  C   UNL     1      13.069 -18.552   5.988  1.00  0.00    +0.009 A 
ATOM     33  C   UNL     1      13.398 -17.153   4.049  1.00  0.00    +0.001 A 
ATOM     34  C   UNL     1      12.767 -17.397   5.264  1.00  0.00    +0.001 A 
ENDBRANCH  23  25
ENDBRANCH  22  23
ENDBRANCH   6  22
TORSDOF 6
ENDMDL
MODEL 5
REMARK VINA RESULT:    -8.956      2.677      3.588
REMARK INTER + INTRA:         -13.065
REMARK INTER:                 -12.194
REMARK INTRA:                  -0.871
REMARK UNBOUND:                -1.228
REMARK SMILES CC1(c2ccc(S(N)(=O)=O)cc2)NC(=O)N(CC(=O)c2ccc3ccccc3c2)C1=O
REMARK SMILES IDX 1 1 2 2 13 3 14 4 15 5 16 6 30 7 31 8 3 10 4 11 12 12 5 13
REMARK SMILES IDX 11 14 6 15 7 16 9 17 10 18 8 19 17 22 18 23 19 24 20 25
REMARK SMILES IDX 21 26 29 27 22 28 28 29 23 30 27 31 24 32 26 33 25 34
REMARK H PARENT 13 9 8 20 8 21
ROOT
ATOM      1  C   UNL     1      15.367 -23.922  -0.196  1.00  0.00    +0.051 C 
ATOM      2  C   UNL     1      16.788 -23.361  -0.279  1.00  0.00    +0.144 C 
ATOM      3  N   UNL     1      16.926 -22.591  -1.498  1.00  0.00    -0.319 N 
ATOM      4  C   UNL     1      17.268 -21.282  -1.262  1.00  0.00    +0.325 C 
ATOM      5  O   UNL     1      17.511 -20.471  -2.140  1.00  0.00    -0.248 OA
ATOM      6  N   UNL     1      17.269 -21.068   0.077  1.00  0.00    -0.254 N 
ATOM      7  C   UNL     1      16.972 -22.220   0.752  1.00  0.00    +0.261 C 
ATOM      8  O   UNL     1      16.868 -22.326   1.968  1.00  0.00    -0.271 OA
ATOM      9  H   UNL     1      16.918 -22.968  -2.437  1.00  0.00    +0.166 HD
ENDROOT
BRANCH   2  10
ATOM     10  C   UNL     1      17.872 -24.428  -0.113  1.00  0.00    -0.013 A 
ATOM     11  C   UNL     1      19.224 -24.179  -0.419  1.00  0.00    +0.008 A 
ATOM     12  C   UNL     1      17.536 -25.699   0.394  1.00  0.00    +0.008 A 
ATOM     13  C   UNL     1      20.202 -25.161  -0.233  1.00  0.00    +0.022 A 
ATOM     14  C   UNL     1      18.507 -26.686   0.584  1.00  0.00    +0.022 A 
ATOM     15  C   UNL     1      19.838 -26.406   0.278  1.00  0.00    +0.082 A 
BRANCH  15  16
ATOM     16  S   UNL     1      21.072 -27.649   0.539  1.00  0.00    +0.238 S 
ATOM     17  O   UNL     1      21.591 -28.056  -0.744  1.00  0.00    -0.207 OA
ATOM     18  O   UNL     1      21.926 -27.228   1.625  1.00  0.00    -0.207 OA
BRANCH  16  19
ATOM     19  N   UNL     1      20.145 -28.915   1.153  1.00  0.00    -0.225 NA
ATOM     20  H   UNL     1      19.232 -28.907   0.695  1.00  0.00    +0.137 HD
ATOM     21  H   UNL     1      20.602 -29.823   1.068  1.00  0.00    +0.137 HD
ENDBRANCH  16  19
ENDBRANCH  15  16
ENDBRANCH   2  10
BRANCH   6  22
ATOM     22  C   UNL     1      17.652 -19.824   0.704  1.00  0.00    +0.211 C 
BRANCH  22  23
ATOM     23  C   UNL     1      16.427 -18.917   0.811  1.00  0.00    +0.182 C 
ATOM     24  O   UNL     1      16.011 -18.247  -0.135  1.00  0.00    -0.292 OA
BRANCH  23  25
ATOM     25  C   UNL     1      15.719 -18.838   2.126  1.00  0.00    +0.020 A 
ATOM     26  C   UNL     1      16.101 -19.604   3.230  1.00  0.00    +0.012 A 
ATOM     27  C   UNL     1      14.635 -17.956   2.244  1.00  0.00    +0.020 A 
ATOM     28  C   UNL     1      15.405 -19.490   4.438  1.00  0.00    +0.009 A 
ATOM     29  C   UNL     1      13.928 -17.832   3.452  1.00  0.00    -0.018 A 
ATOM     30  C   UNL     1      14.318 -18.610   4.564  1.00  0.00    -0.018 A 
ATOM     31  C   UNL     1      12.841 -16.952   3.577  1.00  0.00    +0.009 A 
ATOM     32  C   UNL     1      13.611 -18.488   5.771  1.00  0.00    +0.009 A 
ATOM     33  C   UNL     1      12.148 -16.841   4.783  1.00  0.00    +0.001 A 
ATOM     34  C   UNL     1      12.533 -17.608   5.878  1.00  0.00    +0.001 A 
ENDBRANCH  23  25
ENDBRANCH  22  23
ENDBRANCH   6  22
TORSDOF 6
ENDMDL
MODEL 6
REMARK VINA RESULT:    -8.911      3.355      4.749
REMARK INTER + INTRA:         -13.005
REMARK INTER:                 -12.639
REMARK INTRA:                  -0.366
REMARK UNBOUND:                -1.228
REMARK SMILES CC1(c2ccc(S(N)(=O)=O)cc2)NC(=O)N(CC(=O)c2ccc3ccccc3c2)C1=O
REMARK SMILES IDX 1 1 2 2 13 3 14 4 15 5 16 6 30 7 31 8 3 10 4 11 12 12 5 13
REMARK SMILES IDX 11 14 6 15 7 16 9 17 10 18 8 19 17 22 18 23 19 24 20 25
REMARK SMILES IDX 21 26 29 27 22 28 28 29 23 30 27 31 24 32 26 33 25 34
REMARK H PARENT 13 9 8 20 8 21
ROOT
ATOM      1  C   UNL     1      16.928 -22.289  -2.836  1.00  0.00    +0.051 C 
ATOM      2  C   UNL     1      18.073 -21.421  -2.309  1.00  0.00    +0.144 C 
ATOM      3  N   UNL     1      17.661 -20.032  -2.319  1.00  0.00    -0.319 N 
ATOM      4  C   UNL     1      17.702 -19.459  -1.072  1.00  0.00    +0.325 C 
ATOM      5  O   UNL     1      17.472 -18.281  -0.855  1.00  0.00    -0.248 OA
ATOM      6  N   UNL     1      18.019 -20.416  -0.164  1.00  0.00    -0.254 N 
ATOM      7  C   UNL     1      18.232 -21.617  -0.781  1.00  0.00    +0.261 C 
ATOM      8  O   UNL     1      18.500 -22.670  -0.216  1.00  0.00    -0.271 OA
ATOM      9  H   UNL     1      17.491 -19.474  -3.145  1.00  0.00    +0.166 HD
ENDROOT
BRANCH   2  10
ATOM     10  C   UNL     1      19.398 -21.663  -3.033  1.00  0.00    -0.013 A 
ATOM     11  C   UNL     1      19.521 -21.555  -4.432  1.00  0.00    +0.008 A 
ATOM     12  C   UNL     1      20.558 -21.968  -2.294  1.00  0.00    +0.008 A 
ATOM     13  C   UNL     1      20.749 -21.752  -5.070  1.00  0.00    +0.022 A 
ATOM     14  C   UNL     1      21.790 -22.166  -2.923  1.00  0.00    +0.022 A 
ATOM     15  C   UNL     1      21.879 -22.046  -4.308  1.00  0.00    +0.082 A 
BRANCH  15  16
ATOM     16  S   UNL     1      23.446 -22.275  -5.103  1.00  0.00    +0.238 S 
ATOM     17  O   UNL     1      23.535 -21.355  -6.211  1.00  0.00    -0.207 OA
ATOM     18  O   UNL     1      24.468 -22.369  -4.086  1.00  0.00    -0.207 OA
BRANCH  16  19
ATOM     19  N   UNL     1      23.280 -23.831  -5.727  1.00  0.00    -0.225 NA
ATOM     20  H   UNL     1      22.365 -23.911  -6.173  1.00  0.00    +0.137 HD
ATOM     21  H   UNL     1      24.034 -24.089  -6.364  1.00  0.00    +0.137 HD
ENDBRANCH  16  19
ENDBRANCH  15  16
ENDBRANCH   2  10
BRANCH   6  22
ATOM     22  C   UNL     1      18.223 -20.168   1.244  1.00  0.00    +0.211 C 
BRANCH  22  23
ATOM     23  C   UNL     1      17.020 -20.692   2.027  1.00  0.00    +0.182 C 
ATOM     24  O   UNL     1      16.852 -21.889   2.265  1.00  0.00    -0.292 OA
BRANCH  23  25
ATOM     25  C   UNL     1      16.006 -19.704   2.509  1.00  0.00    +0.020 A 
ATOM     26  C   UNL     1      15.548 -18.651   1.713  1.00  0.00    +0.012 A 
ATOM     27  C   UNL     1      15.500 -19.853   3.808  1.00  0.00    +0.020 A 
ATOM     28  C   UNL     1      14.596 -17.756   2.213  1.00  0.00    +0.009 A 
ATOM     29  C   UNL     1      14.544 -18.961   4.322  1.00  0.00    -0.018 A 
ATOM     30  C   UNL     1      14.086 -17.897   3.513  1.00  0.00    -0.018 A 
ATOM     31  C   UNL     1      14.034 -19.103   5.623  1.00  0.00    +0.009 A 
ATOM     32  C   UNL     1      13.131 -17.005   4.026  1.00  0.00    +0.009 A 
ATOM     33  C   UNL     1      13.085 -18.208   6.118  1.00  0.00    +0.001 A 
ATOM     34  C   UNL     1      12.634 -17.160   5.321  1.00  0.00    +0.001 A 
ENDBRANCH  23  25
ENDBRANCH  22  23
ENDBRANCH   6  22
TORSDOF 6
ENDMDL
MODEL 7
REMARK VINA RESULT:    -8.887      3.960      8.431
REMARK INTER + INTRA:         -12.973
REMARK INTER:                 -12.195
REMARK INTRA:                  -0.778
REMARK UNBOUND:                -1.228
REMARK SMILES CC1(c2ccc(S(N)(=O)=O)cc2)NC(=O)N(CC(=O)c2ccc3ccccc3c2)C1=O
REMARK SMILES IDX 1 1 2 2 13 3 14 4 15 5 16 6 30 7 31 8 3 10 4 11 12 12 5 13
REMARK SMILES IDX 11 14 6 15 7 16 9 17 10 18 8 19 17 22 18 23 19 24 20 25
REMARK SMILES IDX 21 26 29 27 22 28 28 29 23 30 27 31 24 32 26 33 25 34
REMARK H PARENT 13 9 8 20 8 21
ROOT
ATOM      1  C   UNL     1      17.188 -23.916   2.766  1.00  0.00    +0.051 C 
ATOM      2  C   UNL     1      17.525 -22.452   2.479  1.00  0.00    +0.144 C 
ATOM      3  N   UNL     1      18.931 -22.225   2.748  1.00  0.00    -0.319 N 
ATOM      4  C   UNL     1      19.616 -21.780   1.644  1.00  0.00    +0.325 C 
ATOM      5  O   UNL     1      20.790 -21.451   1.657  1.00  0.00    -0.248 OA
ATOM      6  N   UNL     1      18.776 -21.788   0.579  1.00  0.00    -0.254 N 
ATOM      7  C   UNL     1      17.525 -22.194   0.951  1.00  0.00    +0.261 C 
ATOM      8  O   UNL     1      16.567 -22.332   0.200  1.00  0.00    -0.271 OA
ATOM      9  H   UNL     1      19.366 -22.245   3.660  1.00  0.00    +0.166 HD
ENDROOT
BRANCH   2  10
ATOM     10  C   UNL     1      16.606 -21.465   3.201  1.00  0.00    -0.013 A 
ATOM     11  C   UNL     1      15.860 -21.828   4.339  1.00  0.00    +0.008 A 
ATOM     12  C   UNL     1      16.515 -20.132   2.753  1.00  0.00    +0.008 A 
ATOM     13  C   UNL     1      15.048 -20.901   4.999  1.00  0.00    +0.022 A 
ATOM     14  C   UNL     1      15.707 -19.199   3.408  1.00  0.00    +0.022 A 
ATOM     15  C   UNL     1      14.985 -19.588   4.535  1.00  0.00    +0.082 A 
BRANCH  15  16
ATOM     16  S   UNL     1      13.979 -18.399   5.378  1.00  0.00    +0.238 S 
ATOM     17  O   UNL     1      12.636 -18.918   5.469  1.00  0.00    -0.207 OA
ATOM     18  O   UNL     1      14.705 -17.915   6.530  1.00  0.00    -0.207 OA
BRANCH  16  19
ATOM     19  N   UNL     1      13.973 -17.125   4.276  1.00  0.00    -0.225 NA
ATOM     20  H   UNL     1      13.080 -17.122   3.780  1.00  0.00    +0.137 HD
ATOM     21  H   UNL     1      14.168 -16.221   4.707  1.00  0.00    +0.137 HD
ENDBRANCH  16  19
ENDBRANCH  15  16
ENDBRANCH   2  10
BRANCH   6  22
ATOM     22  C   UNL     1      19.127 -21.316  -0.740  1.00  0.00    +0.211 C 
BRANCH  22  23
ATOM     23  C   UNL     1      19.747 -22.462  -1.537  1.00  0.00    +0.182 C 
ATOM     24  O   UNL     1      19.580 -23.646  -1.239  1.00  0.00    -0.292 OA
BRANCH  23  25
ATOM     25  C   UNL     1      20.598 -22.123  -2.719  1.00  0.00    +0.020 A 
ATOM     26  C   UNL     1      21.995 -22.107  -2.657  1.00  0.00    +0.012 A 
ATOM     27  C   UNL     1      19.962 -21.815  -3.930  1.00  0.00    +0.020 A 
ATOM     28  C   UNL     1      22.743 -21.784  -3.794  1.00  0.00    +0.009 A 
ATOM     29  C   UNL     1      20.702 -21.490  -5.078  1.00  0.00    -0.018 A 
ATOM     30  C   UNL     1      22.113 -21.473  -5.009  1.00  0.00    -0.018 A 
ATOM     31  C   UNL     1      20.071 -21.178  -6.294  1.00  0.00    +0.009 A 
ATOM     32  C   UNL     1      22.854 -21.146  -6.156  1.00  0.00    +0.009 A 
ATOM     33  C   UNL     1      20.822 -20.856  -7.424  1.00  0.00    +0.001 A 
ATOM     34  C   UNL     1      22.211 -20.840  -7.356  1.00  0.00    +0.001 A 
ENDBRANCH  23  25
ENDBRANCH  22  23
ENDBRANCH   6  22
TORSDOF 6
ENDMDL
MODEL 8
REMARK VINA RESULT:    -8.773      3.191      5.970
REMARK INTER + INTRA:         -12.822
REMARK INTER:                 -11.575
REMARK INTRA:                  -1.247
REMARK UNBOUND:                -1.228
REMARK SMILES CC1(c2ccc(S(N)(=O)=O)cc2)NC(=O)N(CC(=O)c2ccc3ccccc3c2)C1=O
REMARK SMILES IDX 1 1 2 2 13 3 14 4 15 5 16 6 30 7 31 8 3 10 4 11 12 12 5 13
REMARK SMILES IDX 11 14 6 15 7 16 9 17 10 18 8 19 17 22 18 23 19 24 20 25
REMARK SMILES IDX 21 26 29 27 22 28 28 29 23 30 27 31 24 32 26 33 25 34
REMARK H PARENT 13 9 8 20 8 21
ROOT
ATOM      1  C   UNL     1      17.290 -18.268  -0.950  1.00  0.00    +0.051 C 
ATOM      2  C   UNL     1      16.599 -19.489  -0.341  1.00  0.00    +0.144 C 
ATOM      3  N   UNL     1      15.553 -19.941  -1.237  1.00  0.00    -0.319 N 
ATOM      4  C   UNL     1      15.737 -21.236  -1.655  1.00  0.00    +0.325 C 
ATOM      5  O   UNL     1      14.942 -21.848  -2.349  1.00  0.00    -0.248 OA
ATOM      6  N   UNL     1      16.927 -21.681  -1.180  1.00  0.00    -0.254 N 
ATOM      7  C   UNL     1      17.533 -20.723  -0.416  1.00  0.00    +0.261 C 
ATOM      8  O   UNL     1      18.631 -20.826   0.117  1.00  0.00    -0.271 OA
ATOM      9  H   UNL     1      14.698 -19.441  -1.443  1.00  0.00    +0.166 HD
ENDROOT
BRANCH   2  10
ATOM     10  C   UNL     1      16.110 -19.258   1.090  1.00  0.00    -0.013 A 
ATOM     11  C   UNL     1      15.140 -18.287   1.404  1.00  0.00    +0.008 A 
ATOM     12  C   UNL     1      16.604 -20.058   2.140  1.00  0.00    +0.008 A 
ATOM     13  C   UNL     1      14.687 -18.113   2.715  1.00  0.00    +0.022 A 
ATOM     14  C   UNL     1      16.156 -19.891   3.453  1.00  0.00    +0.022 A 
ATOM     15  C   UNL     1      15.191 -18.924   3.730  1.00  0.00    +0.082 A 
BRANCH  15  16
ATOM     16  S   UNL     1      14.608 -18.729   5.391  1.00  0.00    +0.238 S 
ATOM     17  O   UNL     1      13.345 -19.417   5.516  1.00  0.00    -0.207 OA
ATOM     18  O   UNL     1      15.710 -18.958   6.296  1.00  0.00    -0.207 OA
BRANCH  16  19
ATOM     19  N   UNL     1      14.308 -17.073   5.447  1.00  0.00    -0.225 NA
ATOM     20  H   UNL     1      13.310 -16.924   5.608  1.00  0.00    +0.137 HD
ATOM     21  H   UNL     1      14.878 -16.586   6.139  1.00  0.00    +0.137 HD
ENDBRANCH  16  19
ENDBRANCH  15  16
ENDBRANCH   2  10
BRANCH   6  22
ATOM     22  C   UNL     1      17.424 -23.025  -1.358  1.00  0.00    +0.211 C 
BRANCH  22  23
ATOM     23  C   UNL     1      16.981 -23.886  -0.177  1.00  0.00    +0.182 C 
ATOM     24  O   UNL     1      15.965 -24.583  -0.206  1.00  0.00    -0.292 OA
BRANCH  23  25
ATOM     25  C   UNL     1      17.815 -23.868   1.064  1.00  0.00    +0.020 A 
ATOM     26  C   UNL     1      17.268 -23.643   2.330  1.00  0.00    +0.012 A 
ATOM     27  C   UNL     1      19.194 -24.091   0.941  1.00  0.00    +0.020 A 
ATOM     28  C   UNL     1      18.094 -23.638   3.460  1.00  0.00    +0.009 A 
ATOM     29  C   UNL     1      20.033 -24.089   2.067  1.00  0.00    -0.018 A 
ATOM     30  C   UNL     1      19.476 -23.858   3.344  1.00  0.00    -0.018 A 
ATOM     31  C   UNL     1      21.416 -24.309   1.951  1.00  0.00    +0.009 A 
ATOM     32  C   UNL     1      20.314 -23.854   4.470  1.00  0.00    +0.009 A 
ATOM     33  C   UNL     1      22.235 -24.303   3.080  1.00  0.00    +0.001 A 
ATOM     34  C   UNL     1      21.686 -24.076   4.338  1.00  0.00    +0.001 A 
ENDBRANCH  23  25
ENDBRANCH  22  23
ENDBRANCH   6  22
TORSDOF 6
ENDMDL
MODEL 9
REMARK VINA RESULT:    -8.696      2.937      6.320
REMARK INTER + INTRA:         -12.720
REMARK INTER:                 -10.330
REMARK INTRA:                  -2.390
REMARK UNBOUND:                -1.228
REMARK SMILES CC1(c2ccc(S(N)(=O)=O)cc2)NC(=O)N(CC(=O)c2ccc3ccccc3c2)C1=O
REMARK SMILES IDX 1 1 2 2 13 3 14 4 15 5 16 6 30 7 31 8 3 10 4 11 12 12 5 13
REMARK SMILES IDX 11 14 6 15 7 16 9 17 10 18 8 19 17 22 18 23 19 24 20 25
REMARK SMILES IDX 21 26 29 27 22 28 28 29 23 30 27 31 24 32 26 33 25 34
REMARK H PARENT 13 9 8 20 8 21
ROOT
ATOM      1  C   UNL     1      20.644 -24.416   4.295  1.00  0.00    +0.051 C 
ATOM      2  C   UNL     1      20.217 -23.620   3.060  1.00  0.00    +0.144 C 
ATOM      3  N   UNL     1      21.364 -22.914   2.527  1.00  0.00    -0.319 N 
ATOM      4  C   UNL     1      21.647 -23.266   1.231  1.00  0.00    +0.325 C 
ATOM      5  O   UNL     1      22.520 -22.744   0.557  1.00  0.00    -0.248 OA
ATOM      6  N   UNL     1      20.816 -24.272   0.862  1.00  0.00    -0.254 N 
ATOM      7  C   UNL     1      19.948 -24.579   1.873  1.00  0.00    +0.261 C 
ATOM      8  O   UNL     1      19.105 -25.467   1.843  1.00  0.00    -0.271 OA
ATOM      9  H   UNL     1      21.842 -22.144   2.976  1.00  0.00    +0.166 HD
ENDROOT
BRANCH   2  10
ATOM     10  C   UNL     1      19.013 -22.711   3.311  1.00  0.00    -0.013 A 
ATOM     11  C   UNL     1      18.229 -22.808   4.478  1.00  0.00    +0.008 A 
ATOM     12  C   UNL     1      18.679 -21.710   2.377  1.00  0.00    +0.008 A 
ATOM     13  C   UNL     1      17.150 -21.947   4.699  1.00  0.00    +0.022 A 
ATOM     14  C   UNL     1      17.603 -20.845   2.591  1.00  0.00    +0.022 A 
ATOM     15  C   UNL     1      16.850 -20.963   3.758  1.00  0.00    +0.082 A 
BRANCH  15  16
ATOM     16  S   UNL     1      15.501 -19.851   4.039  1.00  0.00    +0.238 S 
ATOM     17  O   UNL     1      15.296 -19.069   2.844  1.00  0.00    -0.207 OA
ATOM     18  O   UNL     1      14.432 -20.579   4.685  1.00  0.00    -0.207 OA
BRANCH  16  19
ATOM     19  N   UNL     1      16.142 -18.839   5.223  1.00  0.00    -0.225 NA
ATOM     20  H   UNL     1      16.447 -19.409   6.014  1.00  0.00    +0.137 HD
ATOM     21  H   UNL     1      16.895 -18.244   4.875  1.00  0.00    +0.137 HD
ENDBRANCH  16  19
ENDBRANCH  15  16
ENDBRANCH   2  10
BRANCH   6  22
ATOM     22  C   UNL     1      20.773 -24.851  -0.461  1.00  0.00    +0.211 C 
BRANCH  22  23
ATOM     23  C   UNL     1      20.423 -23.764  -1.475  1.00  0.00    +0.182 C 
ATOM     24  O   UNL     1      21.131 -23.511  -2.451  1.00  0.00    -0.292 OA
BRANCH  23  25
ATOM     25  C   UNL     1      19.173 -22.972  -1.260  1.00  0.00    +0.020 A 
ATOM     26  C   UNL     1      17.937 -23.576  -1.008  1.00  0.00    +0.012 A 
ATOM     27  C   UNL     1      19.255 -21.574  -1.311  1.00  0.00    +0.020 A 
ATOM     28  C   UNL     1      16.798 -22.788  -0.813  1.00  0.00    +0.009 A 
ATOM     29  C   UNL     1      18.118 -20.771  -1.116  1.00  0.00    -0.018 A 
ATOM     30  C   UNL     1      16.873 -21.387  -0.864  1.00  0.00    -0.018 A 
ATOM     31  C   UNL     1      18.193 -19.370  -1.167  1.00  0.00    +0.009 A 
ATOM     32  C   UNL     1      15.736 -20.586  -0.670  1.00  0.00    +0.009 A 
ATOM     33  C   UNL     1      17.054 -18.588  -0.972  1.00  0.00    +0.001 A 
ATOM     34  C   UNL     1      15.828 -19.194  -0.724  1.00  0.00    +0.001 A 
ENDBRANCH  23  25
ENDBRANCH  22  23
ENDBRANCH   6  22
TORSDOF 6
ENDMDL
