MODEL 1
REMARK VINA RESULT:    -8.302      0.000      0.000
REMARK INTER + INTRA:         -12.155
REMARK INTER:                 -10.972
REMARK INTRA:                  -1.184
REMARK UNBOUND:                -1.184
REMARK SMILES CC1(c2ccc(S(N)(=O)=O)cc2)NC(=O)N(CC(=O)c2cccc(Br)c2)C1=O
REMARK SMILES IDX 1 1 2 2 13 3 14 4 15 5 16 6 27 7 28 8 3 10 4 11 12 12 5 13
REMARK SMILES IDX 11 14 6 15 7 16 9 17 10 18 8 19 17 22 18 23 19 24 20 25
REMARK SMILES IDX 21 26 26 27 22 28 24 29 23 30 25 31
REMARK H PARENT 13 9 8 20 8 21
ROOT
ATOM      1  C   UNL     1      16.968 -18.198  -0.839  1.00  0.00    +0.051 C 
ATOM      2  C   UNL     1      16.820 -19.388   0.117  1.00  0.00    +0.144 C 
ATOM      3  N   UNL     1      18.124 -19.974   0.356  1.00  0.00    -0.319 N 
ATOM      4  C   UNL     1      18.242 -21.236  -0.176  1.00  0.00    +0.325 C 
ATOM      5  O   UNL     1      19.234 -21.935  -0.063  1.00  0.00    -0.248 OA
ATOM      6  N   UNL     1      17.087 -21.545  -0.823  1.00  0.00    -0.254 N 
ATOM      7  C   UNL     1      16.167 -20.541  -0.683  1.00  0.00    +0.261 C 
ATOM      8  O   UNL     1      15.029 -20.550  -1.136  1.00  0.00    -0.271 OA
ATOM      9  H   UNL     1      18.838 -19.594   0.961  1.00  0.00    +0.166 HD
ENDROOT
BRANCH   2  10
ATOM     10  C   UNL     1      16.118 -19.106   1.445  1.00  0.00    -0.013 A 
ATOM     11  C   UNL     1      16.405 -19.835   2.615  1.00  0.00    +0.008 A 
ATOM     12  C   UNL     1      15.131 -18.101   1.525  1.00  0.00    +0.008 A 
ATOM     13  C   UNL     1      15.742 -19.566   3.818  1.00  0.00    +0.022 A 
ATOM     14  C   UNL     1      14.468 -17.824   2.724  1.00  0.00    +0.022 A 
ATOM     15  C   UNL     1      14.772 -18.566   3.863  1.00  0.00    +0.082 A 
BRANCH  15  16
ATOM     16  S   UNL     1      13.929 -18.210   5.380  1.00  0.00    +0.238 S 
ATOM     17  O   UNL     1      13.327 -19.428   5.867  1.00  0.00    -0.207 OA
ATOM     18  O   UNL     1      13.184 -16.983   5.217  1.00  0.00    -0.207 OA
BRANCH  16  19
ATOM     19  N   UNL     1      15.215 -17.819   6.397  1.00  0.00    -0.225 NA
ATOM     20  H   UNL     1      15.289 -18.534   7.123  1.00  0.00    +0.137 HD
ATOM     21  H   UNL     1      15.148 -16.880   6.788  1.00  0.00    +0.137 HD
ENDBRANCH  16  19
ENDBRANCH  15  16
ENDBRANCH   2  10
BRANCH   6  22
ATOM     22  C   UNL     1      16.813 -22.827  -1.432  1.00  0.00    +0.211 C 
BRANCH  22  23
ATOM     23  C   UNL     1      16.049 -23.708  -0.448  1.00  0.00    +0.182 C 
ATOM     24  O   UNL     1      14.862 -23.998  -0.597  1.00  0.00    -0.292 OA
BRANCH  23  25
ATOM     25  C   UNL     1      16.780 -24.241   0.743  1.00  0.00    +0.021 A 
ATOM     26  C   UNL     1      17.373 -25.510   0.647  1.00  0.00    +0.012 A 
ATOM     27  C   UNL     1      16.889 -23.524   1.941  1.00  0.00    +0.027 A 
ATOM     28  C   UNL     1      18.068 -26.055   1.728  1.00  0.00    +0.002 A 
ATOM     29  C   UNL     1      17.586 -24.079   3.018  1.00  0.00    +0.018 A 
ATOM     30  C   UNL     1      18.175 -25.338   2.918  1.00  0.00    +0.016 A 
ATOM     31 Br   UNL     1      17.731 -23.106   4.634  1.00  0.00    -0.051 Br
ENDBRANCH  23  25
ENDBRANCH  22  23
ENDBRANCH   6  22
TORSDOF 6
ENDMDL
MODEL 2
REMARK VINA RESULT:    -8.231      2.534      4.464
REMARK INTER + INTRA:         -12.061
REMARK INTER:                 -10.671
REMARK INTRA:                  -1.390
REMARK UNBOUND:                -1.184
REMARK SMILES CC1(c2ccc(S(N)(=O)=O)cc2)NC(=O)N(CC(=O)c2cccc(Br)c2)C1=O
REMARK SMILES IDX 1 1 2 2 13 3 14 4 15 5 16 6 27 7 28 8 3 10 4 11 12 12 5 13
REMARK SMILES IDX 11 14 6 15 7 16 9 17 10 18 8 19 17 22 18 23 19 24 20 25
REMARK SMILES IDX 21 26 26 27 22 28 24 29 23 30 25 31
REMARK H PARENT 13 9 8 20 8 21
ROOT
ATOM      1  C   UNL     1      19.736 -23.114   4.711  1.00  0.00    +0.051 C 
ATOM      2  C   UNL     1      18.485 -22.856   3.862  1.00  0.00    +0.144 C 
ATOM      3  N   UNL     1      17.780 -24.106   3.661  1.00  0.00    -0.319 N 
ATOM      4  C   UNL     1      17.803 -24.521   2.351  1.00  0.00    +0.325 C 
ATOM      5  O   UNL     1      17.241 -25.523   1.941  1.00  0.00    -0.248 OA
ATOM      6  N   UNL     1      18.539 -23.637   1.627  1.00  0.00    -0.254 N 
ATOM      7  C   UNL     1      18.959 -22.597   2.412  1.00  0.00    +0.261 C 
ATOM      8  O   UNL     1      19.618 -21.638   2.029  1.00  0.00    -0.271 OA
ATOM      9  H   UNL     1      17.202 -24.573   4.346  1.00  0.00    +0.166 HD
ENDROOT
BRANCH   2  10
ATOM     10  C   UNL     1      17.524 -21.787   4.380  1.00  0.00    -0.013 A 
ATOM     11  C   UNL     1      17.433 -21.459   5.747  1.00  0.00    +0.008 A 
ATOM     12  C   UNL     1      16.673 -21.105   3.485  1.00  0.00    +0.008 A 
ATOM     13  C   UNL     1      16.538 -20.483   6.201  1.00  0.00    +0.022 A 
ATOM     14  C   UNL     1      15.780 -20.126   3.930  1.00  0.00    +0.022 A 
ATOM     15  C   UNL     1      15.712 -19.828   5.290  1.00  0.00    +0.082 A 
BRANCH  15  16
ATOM     16  S   UNL     1      14.578 -18.585   5.849  1.00  0.00    +0.238 S 
ATOM     17  O   UNL     1      15.243 -17.768   6.835  1.00  0.00    -0.207 OA
ATOM     18  O   UNL     1      13.295 -19.206   6.086  1.00  0.00    -0.207 OA
BRANCH  16  19
ATOM     19  N   UNL     1      14.375 -17.661   4.454  1.00  0.00    -0.225 NA
ATOM     20  H   UNL     1      15.267 -17.225   4.216  1.00  0.00    +0.137 HD
ATOM     21  H   UNL     1      13.622 -16.979   4.529  1.00  0.00    +0.137 HD
ENDBRANCH  16  19
ENDBRANCH  15  16
ENDBRANCH   2  10
BRANCH   6  22
ATOM     22  C   UNL     1      18.711 -23.703   0.194  1.00  0.00    +0.211 C 
BRANCH  22  23
ATOM     23  C   UNL     1      17.483 -23.116  -0.497  1.00  0.00    +0.182 C 
ATOM     24  O   UNL     1      16.520 -23.803  -0.840  1.00  0.00    -0.292 OA
BRANCH  23  25
ATOM     25  C   UNL     1      17.454 -21.644  -0.763  1.00  0.00    +0.021 A 
ATOM     26  C   UNL     1      18.136 -21.158  -1.890  1.00  0.00    +0.012 A 
ATOM     27  C   UNL     1      16.777 -20.744   0.068  1.00  0.00    +0.027 A 
ATOM     28  C   UNL     1      18.141 -19.794  -2.186  1.00  0.00    +0.002 A 
ATOM     29  C   UNL     1      16.788 -19.380  -0.237  1.00  0.00    +0.018 A 
ATOM     30  C   UNL     1      17.465 -18.901  -1.356  1.00  0.00    +0.016 A 
ATOM     31 Br   UNL     1      15.872 -18.166   0.889  1.00  0.00    -0.051 Br
ENDBRANCH  23  25
ENDBRANCH  22  23
ENDBRANCH   6  22
TORSDOF 6
ENDMDL
MODEL 3
REMARK VINA RESULT:    -8.036      1.364      1.962
REMARK INTER + INTRA:         -11.803
REMARK INTER:                 -10.500
REMARK INTRA:                  -1.303
REMARK UNBOUND:                -1.184
REMARK SMILES CC1(c2ccc(S(N)(=O)=O)cc2)NC(=O)N(CC(=O)c2cccc(Br)c2)C1=O
REMARK SMILES IDX 1 1 2 2 13 3 14 4 15 5 16 6 27 7 28 8 3 10 4 11 12 12 5 13
REMARK SMILES IDX 11 14 6 15 7 16 9 17 10 18 8 19 17 22 18 23 19 24 20 25
REMARK SMILES IDX 21 26 26 27 22 28 24 29 23 30 25 31
REMARK H PARENT 13 9 8 20 8 21
ROOT
ATOM      1  C   UNL     1      17.125 -18.936  -1.027  1.00  0.00    +0.051 C 
ATOM      2  C   UNL     1      17.197 -19.891   0.170  1.00  0.00    +0.144 C 
ATOM      3  N   UNL     1      18.584 -20.087   0.542  1.00  0.00    -0.319 N 
ATOM      4  C   UNL     1      19.018 -21.369   0.307  1.00  0.00    +0.325 C 
ATOM      5  O   UNL     1      20.136 -21.773   0.580  1.00  0.00    -0.248 OA
ATOM      6  N   UNL     1      18.006 -22.075  -0.261  1.00  0.00    -0.254 N 
ATOM      7  C   UNL     1      16.873 -21.311  -0.355  1.00  0.00    +0.261 C 
ATOM      8  O   UNL     1      15.797 -21.687  -0.801  1.00  0.00    -0.271 OA
ATOM      9  H   UNL     1      19.155 -19.427   1.052  1.00  0.00    +0.166 HD
ENDROOT
BRANCH   2  10
ATOM     10  C   UNL     1      16.372 -19.502   1.396  1.00  0.00    -0.013 A 
ATOM     11  C   UNL     1      15.378 -18.506   1.346  1.00  0.00    +0.008 A 
ATOM     12  C   UNL     1      16.609 -20.130   2.638  1.00  0.00    +0.008 A 
ATOM     13  C   UNL     1      14.642 -18.158   2.486  1.00  0.00    +0.022 A 
ATOM     14  C   UNL     1      15.875 -19.791   3.778  1.00  0.00    +0.022 A 
ATOM     15  C   UNL     1      14.900 -18.798   3.696  1.00  0.00    +0.082 A 
BRANCH  15  16
ATOM     16  S   UNL     1      13.972 -18.373   5.144  1.00  0.00    +0.238 S 
ATOM     17  O   UNL     1      13.462 -19.586   5.735  1.00  0.00    -0.207 OA
ATOM     18  O   UNL     1      13.129 -17.241   4.835  1.00  0.00    -0.207 OA
BRANCH  16  19
ATOM     19  N   UNL     1      15.179 -17.766   6.152  1.00  0.00    -0.225 NA
ATOM     20  H   UNL     1      14.744 -17.394   6.998  1.00  0.00    +0.137 HD
ATOM     21  H   UNL     1      15.779 -17.081   5.695  1.00  0.00    +0.137 HD
ENDBRANCH  16  19
ENDBRANCH  15  16
ENDBRANCH   2  10
BRANCH   6  22
ATOM     22  C   UNL     1      18.069 -23.486  -0.568  1.00  0.00    +0.211 C 
BRANCH  22  23
ATOM     23  C   UNL     1      17.471 -24.288   0.584  1.00  0.00    +0.182 C 
ATOM     24  O   UNL     1      16.515 -25.051   0.438  1.00  0.00    -0.292 OA
BRANCH  23  25
ATOM     25  C   UNL     1      18.078 -24.139   1.943  1.00  0.00    +0.021 A 
ATOM     26  C   UNL     1      17.307 -23.541   2.953  1.00  0.00    +0.012 A 
ATOM     27  C   UNL     1      19.376 -24.571   2.238  1.00  0.00    +0.027 A 
ATOM     28  C   UNL     1      17.824 -23.377   4.239  1.00  0.00    +0.002 A 
ATOM     29  C   UNL     1      19.884 -24.402   3.529  1.00  0.00    +0.018 A 
ATOM     30  C   UNL     1      19.117 -23.808   4.529  1.00  0.00    +0.016 A 
ATOM     31 Br   UNL     1      21.639 -24.986   3.923  1.00  0.00    -0.051 Br
ENDBRANCH  23  25
ENDBRANCH  22  23
ENDBRANCH   6  22
TORSDOF 6
ENDMDL
MODEL 4
REMARK VINA RESULT:    -7.995      3.418      4.954
REMARK INTER + INTRA:         -11.750
REMARK INTER:                 -11.039
REMARK INTRA:                  -0.711
REMARK UNBOUND:                -1.184
REMARK SMILES CC1(c2ccc(S(N)(=O)=O)cc2)NC(=O)N(CC(=O)c2cccc(Br)c2)C1=O
REMARK SMILES IDX 1 1 2 2 13 3 14 4 15 5 16 6 27 7 28 8 3 10 4 11 12 12 5 13
REMARK SMILES IDX 11 14 6 15 7 16 9 17 10 18 8 19 17 22 18 23 19 24 20 25
REMARK SMILES IDX 21 26 26 27 22 28 24 29 23 30 25 31
REMARK H PARENT 13 9 8 20 8 21
ROOT
ATOM      1  C   UNL     1      18.049 -23.876   3.529  1.00  0.00    +0.051 C 
ATOM      2  C   UNL     1      17.251 -22.823   2.751  1.00  0.00    +0.144 C 
ATOM      3  N   UNL     1      16.259 -23.488   1.928  1.00  0.00    -0.319 N 
ATOM      4  C   UNL     1      16.516 -23.360   0.584  1.00  0.00    +0.325 C 
ATOM      5  O   UNL     1      15.795 -23.803  -0.294  1.00  0.00    -0.248 OA
ATOM      6  N   UNL     1      17.677 -22.671   0.426  1.00  0.00    -0.254 N 
ATOM      7  C   UNL     1      18.175 -22.274   1.637  1.00  0.00    +0.261 C 
ATOM      8  O   UNL     1      19.195 -21.617   1.806  1.00  0.00    -0.271 OA
ATOM      9  H   UNL     1      15.390 -23.883   2.259  1.00  0.00    +0.166 HD
ENDROOT
BRANCH   2  10
ATOM     10  C   UNL     1      16.593 -21.722   3.582  1.00  0.00    -0.013 A 
ATOM     11  C   UNL     1      16.219 -21.919   4.925  1.00  0.00    +0.008 A 
ATOM     12  C   UNL     1      16.320 -20.465   3.004  1.00  0.00    +0.008 A 
ATOM     13  C   UNL     1      15.607 -20.900   5.665  1.00  0.00    +0.022 A 
ATOM     14  C   UNL     1      15.715 -19.441   3.737  1.00  0.00    +0.022 A 
ATOM     15  C   UNL     1      15.353 -19.669   5.063  1.00  0.00    +0.082 A 
BRANCH  15  16
ATOM     16  S   UNL     1      14.586 -18.367   5.989  1.00  0.00    +0.238 S 
ATOM     17  O   UNL     1      15.536 -17.869   6.954  1.00  0.00    -0.207 OA
ATOM     18  O   UNL     1      13.251 -18.784   6.351  1.00  0.00    -0.207 OA
BRANCH  16  19
ATOM     19  N   UNL     1      14.377 -17.187   4.803  1.00  0.00    -0.225 NA
ATOM     20  H   UNL     1      14.491 -16.267   5.232  1.00  0.00    +0.137 HD
ATOM     21  H   UNL     1      13.494 -17.272   4.302  1.00  0.00    +0.137 HD
ENDBRANCH  16  19
ENDBRANCH  15  16
ENDBRANCH   2  10
BRANCH   6  22
ATOM     22  C   UNL     1      18.218 -22.271  -0.853  1.00  0.00    +0.211 C 
BRANCH  22  23
ATOM     23  C   UNL     1      19.396 -23.170  -1.214  1.00  0.00    +0.182 C 
ATOM     24  O   UNL     1      19.580 -24.269  -0.690  1.00  0.00    -0.292 OA
BRANCH  23  25
ATOM     25  C   UNL     1      20.362 -22.692  -2.251  1.00  0.00    +0.021 A 
ATOM     26  C   UNL     1      21.728 -22.666  -1.925  1.00  0.00    +0.012 A 
ATOM     27  C   UNL     1      19.955 -22.272  -3.522  1.00  0.00    +0.027 A 
ATOM     28  C   UNL     1      22.674 -22.229  -2.855  1.00  0.00    +0.002 A 
ATOM     29  C   UNL     1      20.909 -21.836  -4.446  1.00  0.00    +0.018 A 
ATOM     30  C   UNL     1      22.263 -21.812  -4.119  1.00  0.00    +0.016 A 
ATOM     31 Br   UNL     1      20.353 -21.270  -6.163  1.00  0.00    -0.051 Br
ENDBRANCH  23  25
ENDBRANCH  22  23
ENDBRANCH   6  22
TORSDOF 6
ENDMDL
MODEL 5
REMARK VINA RESULT:    -7.943      4.385      7.855
REMARK INTER + INTRA:         -11.681
REMARK INTER:                 -10.823
REMARK INTRA:                  -0.858
REMARK UNBOUND:                -1.184
REMARK SMILES CC1(c2ccc(S(N)(=O)=O)cc2)NC(=O)N(CC(=O)c2cccc(Br)c2)C1=O
REMARK SMILES IDX 1 1 2 2 13 3 14 4 15 5 16 6 27 7 28 8 3 10 4 11 12 12 5 13
REMARK SMILES IDX 11 14 6 15 7 16 9 17 10 18 8 19 17 22 18 23 19 24 20 25
REMARK SMILES IDX 21 26 26 27 22 28 24 29 23 30 25 31
REMARK H PARENT 13 9 8 20 8 21
ROOT
ATOM      1  C   UNL     1      16.321 -21.517  -2.446  1.00  0.00    +0.051 C 
ATOM      2  C   UNL     1      17.560 -21.786  -1.584  1.00  0.00    +0.144 C 
ATOM      3  N   UNL     1      17.238 -22.784  -0.584  1.00  0.00    -0.319 N 
ATOM      4  C   UNL     1      17.247 -22.276   0.693  1.00  0.00    +0.325 C 
ATOM      5  O   UNL     1      17.045 -22.940   1.695  1.00  0.00    -0.248 OA
ATOM      6  N   UNL     1      17.516 -20.945   0.630  1.00  0.00    -0.254 N 
ATOM      7  C   UNL     1      17.754 -20.558  -0.662  1.00  0.00    +0.261 C 
ATOM      8  O   UNL     1      18.046 -19.425  -1.023  1.00  0.00    -0.271 OA
ATOM      9  H   UNL     1      17.154 -23.777  -0.749  1.00  0.00    +0.166 HD
ENDROOT
BRANCH   2  10
ATOM     10  C   UNL     1      18.832 -22.182  -2.333  1.00  0.00    -0.013 A 
ATOM     11  C   UNL     1      19.768 -23.087  -1.795  1.00  0.00    +0.008 A 
ATOM     12  C   UNL     1      19.115 -21.621  -3.596  1.00  0.00    +0.008 A 
ATOM     13  C   UNL     1      20.933 -23.427  -2.494  1.00  0.00    +0.022 A 
ATOM     14  C   UNL     1      20.273 -21.959  -4.302  1.00  0.00    +0.022 A 
ATOM     15  C   UNL     1      21.180 -22.855  -3.741  1.00  0.00    +0.082 A 
BRANCH  15  16
ATOM     16  S   UNL     1      22.647 -23.280  -4.640  1.00  0.00    +0.238 S 
ATOM     17  O   UNL     1      23.794 -22.952  -3.829  1.00  0.00    -0.207 OA
ATOM     18  O   UNL     1      22.500 -22.826  -6.003  1.00  0.00    -0.207 OA
BRANCH  16  19
ATOM     19  N   UNL     1      22.522 -24.959  -4.714  1.00  0.00    -0.225 NA
ATOM     20  H   UNL     1      23.032 -25.362  -3.927  1.00  0.00    +0.137 HD
ATOM     21  H   UNL     1      22.825 -25.347  -5.607  1.00  0.00    +0.137 HD
ENDBRANCH  16  19
ENDBRANCH  15  16
ENDBRANCH   2  10
BRANCH   6  22
ATOM     22  C   UNL     1      17.692 -20.094   1.784  1.00  0.00    +0.211 C 
BRANCH  22  23
ATOM     23  C   UNL     1      16.376 -19.391   2.107  1.00  0.00    +0.182 C 
ATOM     24  O   UNL     1      15.867 -18.555   1.359  1.00  0.00    -0.292 OA
BRANCH  23  25
ATOM     25  C   UNL     1      15.680 -19.740   3.384  1.00  0.00    +0.021 A 
ATOM     26  C   UNL     1      16.051 -20.923   4.042  1.00  0.00    +0.012 A 
ATOM     27  C   UNL     1      14.679 -18.934   3.938  1.00  0.00    +0.027 A 
ATOM     28  C   UNL     1      15.435 -21.296   5.238  1.00  0.00    +0.002 A 
ATOM     29  C   UNL     1      14.067 -19.316   5.135  1.00  0.00    +0.018 A 
ATOM     30  C   UNL     1      14.438 -20.491   5.786  1.00  0.00    +0.016 A 
ATOM     31 Br   UNL     1      12.714 -18.224   5.880  1.00  0.00    -0.051 Br
ENDBRANCH  23  25
ENDBRANCH  22  23
ENDBRANCH   6  22
TORSDOF 6
ENDMDL
MODEL 6
REMARK VINA RESULT:    -7.900      4.035      7.652
REMARK INTER + INTRA:         -11.624
REMARK INTER:                 -10.829
REMARK INTRA:                  -0.795
REMARK UNBOUND:                -1.184
REMARK SMILES CC1(c2ccc(S(N)(=O)=O)cc2)NC(=O)N(CC(=O)c2cccc(Br)c2)C1=O
REMARK SMILES IDX 1 1 2 2 13 3 14 4 15 5 16 6 27 7 28 8 3 10 4 11 12 12 5 13
REMARK SMILES IDX 11 14 6 15 7 16 9 17 10 18 8 19 17 22 18 23 19 24 20 25
REMARK SMILES IDX 21 26 26 27 22 28 24 29 23 30 25 31
REMARK H PARENT 13 9 8 20 8 21
ROOT
ATOM      1  C   UNL     1      15.886 -23.412  -0.519  1.00  0.00    +0.051 C 
ATOM      2  C   UNL     1      17.260 -22.940  -0.029  1.00  0.00    +0.144 C 
ATOM      3  N   UNL     1      17.802 -23.922   0.889  1.00  0.00    -0.319 N 
ATOM      4  C   UNL     1      17.890 -23.450   2.177  1.00  0.00    +0.325 C 
ATOM      5  O   UNL     1      18.353 -24.087   3.108  1.00  0.00    -0.248 OA
ATOM      6  N   UNL     1      17.387 -22.188   2.214  1.00  0.00    -0.254 N 
ATOM      7  C   UNL     1      17.020 -21.775   0.961  1.00  0.00    +0.261 C 
ATOM      8  O   UNL     1      16.558 -20.675   0.682  1.00  0.00    -0.271 OA
ATOM      9  H   UNL     1      18.214 -24.807   0.629  1.00  0.00    +0.166 HD
ENDROOT
BRANCH   2  10
ATOM     10  C   UNL     1      18.287 -22.607  -1.110  1.00  0.00    -0.013 A 
ATOM     11  C   UNL     1      17.937 -21.928  -2.293  1.00  0.00    +0.008 A 
ATOM     12  C   UNL     1      19.633 -23.002  -0.955  1.00  0.00    +0.008 A 
ATOM     13  C   UNL     1      18.892 -21.643  -3.276  1.00  0.00    +0.022 A 
ATOM     14  C   UNL     1      20.593 -22.716  -1.930  1.00  0.00    +0.022 A 
ATOM     15  C   UNL     1      20.213 -22.046  -3.091  1.00  0.00    +0.082 A 
BRANCH  15  16
ATOM     16  S   UNL     1      21.435 -21.686  -4.323  1.00  0.00    +0.238 S 
ATOM     17  O   UNL     1      20.822 -20.890  -5.359  1.00  0.00    -0.207 OA
ATOM     18  O   UNL     1      22.176 -22.895  -4.604  1.00  0.00    -0.207 OA
BRANCH  16  19
ATOM     19  N   UNL     1      22.500 -20.700  -3.467  1.00  0.00    -0.225 NA
ATOM     20  H   UNL     1      22.136 -20.567  -2.522  1.00  0.00    +0.137 HD
ATOM     21  H   UNL     1      22.692 -19.814  -3.933  1.00  0.00    +0.137 HD
ENDBRANCH  16  19
ENDBRANCH  15  16
ENDBRANCH   2  10
BRANCH   6  22
ATOM     22  C   UNL     1      17.394 -21.342   3.385  1.00  0.00    +0.211 C 
BRANCH  22  23
ATOM     23  C   UNL     1      16.005 -21.329   4.016  1.00  0.00    +0.182 C 
ATOM     24  O   UNL     1      15.228 -22.281   3.935  1.00  0.00    -0.292 OA
BRANCH  23  25
ATOM     25  C   UNL     1      15.577 -20.108   4.766  1.00  0.00    +0.021 A 
ATOM     26  C   UNL     1      16.346 -19.700   5.868  1.00  0.00    +0.012 A 
ATOM     27  C   UNL     1      14.445 -19.365   4.410  1.00  0.00    +0.027 A 
ATOM     28  C   UNL     1      15.993 -18.567   6.602  1.00  0.00    +0.002 A 
ATOM     29  C   UNL     1      14.099 -18.233   5.152  1.00  0.00    +0.018 A 
ATOM     30  C   UNL     1      14.865 -17.831   6.245  1.00  0.00    +0.016 A 
ATOM     31 Br   UNL     1      12.568 -17.233   4.668  1.00  0.00    -0.051 Br
ENDBRANCH  23  25
ENDBRANCH  22  23
ENDBRANCH   6  22
TORSDOF 6
ENDMDL
MODEL 7
REMARK VINA RESULT:    -7.762      4.013      7.640
REMARK INTER + INTRA:         -11.441
REMARK INTER:                 -10.937
REMARK INTRA:                  -0.504
REMARK UNBOUND:                -1.184
REMARK SMILES CC1(c2ccc(S(N)(=O)=O)cc2)NC(=O)N(CC(=O)c2cccc(Br)c2)C1=O
REMARK SMILES IDX 1 1 2 2 13 3 14 4 15 5 16 6 27 7 28 8 3 10 4 11 12 12 5 13
REMARK SMILES IDX 11 14 6 15 7 16 9 17 10 18 8 19 17 22 18 23 19 24 20 25
REMARK SMILES IDX 21 26 26 27 22 28 24 29 23 30 25 31
REMARK H PARENT 13 9 8 20 8 21
ROOT
ATOM      1  C   UNL     1      18.314 -25.718   1.165  1.00  0.00    +0.051 C 
ATOM      2  C   UNL     1      18.398 -24.187   1.108  1.00  0.00    +0.144 C 
ATOM      3  N   UNL     1      19.221 -23.714   2.202  1.00  0.00    -0.319 N 
ATOM      4  C   UNL     1      18.504 -23.003   3.134  1.00  0.00    +0.325 C 
ATOM      5  O   UNL     1      18.995 -22.475   4.118  1.00  0.00    -0.248 OA
ATOM      6  N   UNL     1      17.196 -22.996   2.764  1.00  0.00    -0.254 N 
ATOM      7  C   UNL     1      17.027 -23.634   1.565  1.00  0.00    +0.261 C 
ATOM      8  O   UNL     1      15.963 -23.763   0.972  1.00  0.00    -0.271 OA
ATOM      9  H   UNL     1      20.230 -23.754   2.240  1.00  0.00    +0.166 HD
ENDROOT
BRANCH   2  10
ATOM     10  C   UNL     1      18.878 -23.585  -0.212  1.00  0.00    -0.013 A 
ATOM     11  C   UNL     1      18.150 -22.589  -0.891  1.00  0.00    +0.008 A 
ATOM     12  C   UNL     1      20.076 -24.039  -0.804  1.00  0.00    +0.008 A 
ATOM     13  C   UNL     1      18.604 -22.059  -2.105  1.00  0.00    +0.022 A 
ATOM     14  C   UNL     1      20.538 -23.511  -2.013  1.00  0.00    +0.022 A 
ATOM     15  C   UNL     1      19.792 -22.529  -2.661  1.00  0.00    +0.082 A 
BRANCH  15  16
ATOM     16  S   UNL     1      20.382 -21.863  -4.194  1.00  0.00    +0.238 S 
ATOM     17  O   UNL     1      20.451 -22.931  -5.161  1.00  0.00    -0.207 OA
ATOM     18  O   UNL     1      21.498 -20.988  -3.917  1.00  0.00    -0.207 OA
BRANCH  16  19
ATOM     19  N   UNL     1      19.114 -20.843  -4.629  1.00  0.00    -0.225 NA
ATOM     20  H   UNL     1      18.536 -21.315  -5.326  1.00  0.00    +0.137 HD
ATOM     21  H   UNL     1      19.425 -19.925  -4.946  1.00  0.00    +0.137 HD
ENDBRANCH  16  19
ENDBRANCH  15  16
ENDBRANCH   2  10
BRANCH   6  22
ATOM     22  C   UNL     1      16.158 -22.269   3.459  1.00  0.00    +0.211 C 
BRANCH  22  23
ATOM     23  C   UNL     1      16.328 -20.773   3.215  1.00  0.00    +0.182 C 
ATOM     24  O   UNL     1      16.931 -20.322   2.240  1.00  0.00    -0.292 OA
BRANCH  23  25
ATOM     25  C   UNL     1      15.734 -19.820   4.202  1.00  0.00    +0.021 A 
ATOM     26  C   UNL     1      16.303 -19.749   5.484  1.00  0.00    +0.012 A 
ATOM     27  C   UNL     1      14.638 -19.005   3.894  1.00  0.00    +0.027 A 
ATOM     28  C   UNL     1      15.788 -18.877   6.444  1.00  0.00    +0.002 A 
ATOM     29  C   UNL     1      14.130 -18.135   4.863  1.00  0.00    +0.018 A 
ATOM     30  C   UNL     1      14.698 -18.067   6.134  1.00  0.00    +0.016 A 
ATOM     31 Br   UNL     1      12.649 -17.036   4.443  1.00  0.00    -0.051 Br
ENDBRANCH  23  25
ENDBRANCH  22  23
ENDBRANCH   6  22
TORSDOF 6
ENDMDL
MODEL 8
REMARK VINA RESULT:    -7.738      1.862      2.216
REMARK INTER + INTRA:         -11.409
REMARK INTER:                 -10.541
REMARK INTRA:                  -0.868
REMARK UNBOUND:                -1.184
REMARK SMILES CC1(c2ccc(S(N)(=O)=O)cc2)NC(=O)N(CC(=O)c2cccc(Br)c2)C1=O
REMARK SMILES IDX 1 1 2 2 13 3 14 4 15 5 16 6 27 7 28 8 3 10 4 11 12 12 5 13
REMARK SMILES IDX 11 14 6 15 7 16 9 17 10 18 8 19 17 22 18 23 19 24 20 25
REMARK SMILES IDX 21 26 26 27 22 28 24 29 23 30 25 31
REMARK H PARENT 13 9 8 20 8 21
ROOT
ATOM      1  C   UNL     1      17.359 -18.904  -0.839  1.00  0.00    +0.051 C 
ATOM      2  C   UNL     1      17.188 -19.940   0.279  1.00  0.00    +0.144 C 
ATOM      3  N   UNL     1      18.494 -20.402   0.705  1.00  0.00    -0.319 N 
ATOM      4  C   UNL     1      18.718 -21.721   0.389  1.00  0.00    +0.325 C 
ATOM      5  O   UNL     1      19.730 -22.333   0.686  1.00  0.00    -0.248 OA
ATOM      6  N   UNL     1      17.638 -22.196  -0.287  1.00  0.00    -0.254 N 
ATOM      7  C   UNL     1      16.662 -21.240  -0.376  1.00  0.00    +0.261 C 
ATOM      8  O   UNL     1      15.568 -21.388  -0.907  1.00  0.00    -0.271 OA
ATOM      9  H   UNL     1      19.135 -19.891   1.295  1.00  0.00    +0.166 HD
ENDROOT
BRANCH   2  10
ATOM     10  C   UNL     1      16.364 -19.501   1.488  1.00  0.00    -0.013 A 
ATOM     11  C   UNL     1      16.498 -20.114   2.750  1.00  0.00    +0.008 A 
ATOM     12  C   UNL     1      15.414 -18.466   1.361  1.00  0.00    +0.008 A 
ATOM     13  C   UNL     1      15.725 -19.702   3.842  1.00  0.00    +0.022 A 
ATOM     14  C   UNL     1      14.642 -18.046   2.448  1.00  0.00    +0.022 A 
ATOM     15  C   UNL     1      14.797 -18.675   3.681  1.00  0.00    +0.082 A 
BRANCH  15  16
ATOM     16  S   UNL     1      13.815 -18.139   5.056  1.00  0.00    +0.238 S 
ATOM     17  O   UNL     1      13.091 -19.275   5.573  1.00  0.00    -0.207 OA
ATOM     18  O   UNL     1      13.169 -16.896   4.705  1.00  0.00    -0.207 OA
BRANCH  16  19
ATOM     19  N   UNL     1      15.003 -17.722   6.177  1.00  0.00    -0.225 NA
ATOM     20  H   UNL     1      15.918 -17.950   5.786  1.00  0.00    +0.137 HD
ATOM     21  H   UNL     1      14.859 -18.146   7.093  1.00  0.00    +0.137 HD
ENDBRANCH  16  19
ENDBRANCH  15  16
ENDBRANCH   2  10
BRANCH   6  22
ATOM     22  C   UNL     1      17.479 -23.570  -0.704  1.00  0.00    +0.211 C 
BRANCH  22  23
ATOM     23  C   UNL     1      17.236 -24.452   0.517  1.00  0.00    +0.182 C 
ATOM     24  O   UNL     1      16.524 -24.102   1.459  1.00  0.00    -0.292 OA
BRANCH  23  25
ATOM     25  C   UNL     1      17.890 -25.796   0.564  1.00  0.00    +0.021 A 
ATOM     26  C   UNL     1      19.253 -25.884   0.237  1.00  0.00    +0.012 A 
ATOM     27  C   UNL     1      17.195 -26.958   0.918  1.00  0.00    +0.027 A 
ATOM     28  C   UNL     1      19.913 -27.113   0.266  1.00  0.00    +0.002 A 
ATOM     29  C   UNL     1      17.865 -28.184   0.943  1.00  0.00    +0.018 A 
ATOM     30  C   UNL     1      19.218 -28.268   0.619  1.00  0.00    +0.016 A 
ATOM     31 Br   UNL     1      16.922 -29.752   1.422  1.00  0.00    -0.051 Br
ENDBRANCH  23  25
ENDBRANCH  22  23
ENDBRANCH   6  22
TORSDOF 6
ENDMDL
MODEL 9
REMARK VINA RESULT:    -7.601      2.981      3.912
REMARK INTER + INTRA:         -11.229
REMARK INTER:                 -10.418
REMARK INTRA:                  -0.811
REMARK UNBOUND:                -1.184
REMARK SMILES CC1(c2ccc(S(N)(=O)=O)cc2)NC(=O)N(CC(=O)c2cccc(Br)c2)C1=O
REMARK SMILES IDX 1 1 2 2 13 3 14 4 15 5 16 6 27 7 28 8 3 10 4 11 12 12 5 13
REMARK SMILES IDX 11 14 6 15 7 16 9 17 10 18 8 19 17 22 18 23 19 24 20 25
REMARK SMILES IDX 21 26 26 27 22 28 24 29 23 30 25 31
REMARK H PARENT 13 9 8 20 8 21
ROOT
ATOM      1  C   UNL     1      18.172 -21.333   0.742  1.00  0.00    +0.051 C 
ATOM      2  C   UNL     1      17.701 -21.911   2.082  1.00  0.00    +0.144 C 
ATOM      3  N   UNL     1      18.857 -22.295   2.868  1.00  0.00    -0.319 N 
ATOM      4  C   UNL     1      18.951 -23.655   3.042  1.00  0.00    +0.325 C 
ATOM      5  O   UNL     1      19.818 -24.202   3.702  1.00  0.00    -0.248 OA
ATOM      6  N   UNL     1      17.932 -24.251   2.368  1.00  0.00    -0.254 N 
ATOM      7  C   UNL     1      17.114 -23.315   1.796  1.00  0.00    +0.261 C 
ATOM      8  O   UNL     1      16.103 -23.554   1.148  1.00  0.00    -0.271 OA
ATOM      9  H   UNL     1      19.463 -21.662   3.370  1.00  0.00    +0.166 HD
ENDROOT
BRANCH   2  10
ATOM     10  C   UNL     1      16.770 -21.028   2.911  1.00  0.00    -0.013 A 
ATOM     11  C   UNL     1      16.337 -21.396   4.200  1.00  0.00    +0.008 A 
ATOM     12  C   UNL     1      16.294 -19.809   2.383  1.00  0.00    +0.008 A 
ATOM     13  C   UNL     1      15.475 -20.575   4.937  1.00  0.00    +0.022 A 
ATOM     14  C   UNL     1      15.437 -18.983   3.115  1.00  0.00    +0.022 A 
ATOM     15  C   UNL     1      15.025 -19.377   4.386  1.00  0.00    +0.082 A 
BRANCH  15  16
ATOM     16  S   UNL     1      13.938 -18.325   5.310  1.00  0.00    +0.238 S 
ATOM     17  O   UNL     1      14.619 -17.901   6.509  1.00  0.00    -0.207 OA
ATOM     18  O   UNL     1      12.624 -18.925   5.331  1.00  0.00    -0.207 OA
BRANCH  16  19
ATOM     19  N   UNL     1      13.803 -16.994   4.285  1.00  0.00    -0.225 NA
ATOM     20  H   UNL     1      14.503 -17.077   3.546  1.00  0.00    +0.137 HD
ATOM     21  H   UNL     1      13.864 -16.102   4.774  1.00  0.00    +0.137 HD
ENDBRANCH  16  19
ENDBRANCH  15  16
ENDBRANCH   2  10
BRANCH   6  22
ATOM     22  C   UNL     1      17.660 -25.670   2.394  1.00  0.00    +0.211 C 
BRANCH  22  23
ATOM     23  C   UNL     1      18.276 -26.333   1.165  1.00  0.00    +0.182 C 
ATOM     24  O   UNL     1      19.116 -25.773   0.459  1.00  0.00    -0.292 OA
BRANCH  23  25
ATOM     25  C   UNL     1      17.841 -27.719   0.812  1.00  0.00    +0.021 A 
ATOM     26  C   UNL     1      18.765 -28.564   0.175  1.00  0.00    +0.012 A 
ATOM     27  C   UNL     1      16.556 -28.198   1.092  1.00  0.00    +0.027 A 
ATOM     28  C   UNL     1      18.411 -29.868  -0.176  1.00  0.00    +0.002 A 
ATOM     29  C   UNL     1      16.212 -29.505   0.736  1.00  0.00    +0.018 A 
ATOM     30  C   UNL     1      17.131 -30.340   0.104  1.00  0.00    +0.016 A 
ATOM     31 Br   UNL     1      14.474 -30.147   1.115  1.00  0.00    -0.051 Br
ENDBRANCH  23  25
ENDBRANCH  22  23
ENDBRANCH   6  22
TORSDOF 6
ENDMDL
