MODEL 1
REMARK VINA RESULT:    -8.487      0.000      0.000
REMARK INTER + INTRA:         -12.493
REMARK INTER:                 -11.464
REMARK INTRA:                  -1.029
REMARK UNBOUND:                -1.029
REMARK SMILES CCOC(=O)NC(=O)c1ccsc1NC(=O)c1ccc(C(=O)N2CCCCC2)cc1
REMARK SMILES IDX 4 1 5 2 6 3 7 4 8 5 3 7 2 8 1 9 9 10 10 11 13 12 11 13 12 14
REMARK SMILES IDX 14 15 15 16 16 17 17 19 18 20 30 21 19 22 29 23 20 24 21 25
REMARK SMILES IDX 22 26 23 27 24 28 28 29 25 30 27 31 26 32
REMARK H PARENT 6 6 14 18
ROOT
ATOM      1  C   UNL     1      14.757 -17.438   1.943  1.00  0.00    +0.414 C 
ATOM      2  O   UNL     1      15.323 -16.952   0.978  1.00  0.00    -0.224 OA
ATOM      3  N   UNL     1      15.101 -18.560   2.636  1.00  0.00    -0.257 N 
ATOM      4  C   UNL     1      16.210 -19.337   2.391  1.00  0.00    +0.263 C 
ATOM      5  O   UNL     1      17.032 -19.119   1.505  1.00  0.00    -0.269 OA
ATOM      6  H   UNL     1      14.487 -18.767   3.402  1.00  0.00    +0.176 HD
ENDROOT
BRANCH   1   7
ATOM      7  O   UNL     1      13.635 -16.923   2.516  1.00  0.00    -0.450 OA
BRANCH   7   8
ATOM      8  C   UNL     1      13.479 -17.172   3.922  1.00  0.00    +0.231 C 
ATOM      9  C   UNL     1      12.085 -16.781   4.373  1.00  0.00    +0.049 C 
ENDBRANCH   7   8
ENDBRANCH   1   7
BRANCH   4  10
ATOM     10  C   UNL     1      16.372 -20.492   3.293  1.00  0.00    +0.075 A 
ATOM     11  C   UNL     1      15.701 -20.748   4.543  1.00  0.00    +0.028 A 
ATOM     12  C   UNL     1      17.254 -21.530   3.000  1.00  0.00    +0.108 A 
ATOM     13  C   UNL     1      16.093 -21.933   5.125  1.00  0.00    +0.068 A 
ATOM     14  S   UNL     1      17.255 -22.745   4.184  1.00  0.00    -0.126 S 
BRANCH  12  15
ATOM     15  N   UNL     1      18.052 -21.616   1.868  1.00  0.00    -0.313 N 
ATOM     16  C   UNL     1      17.869 -22.427   0.764  1.00  0.00    +0.256 C 
ATOM     17  O   UNL     1      17.006 -23.282   0.604  1.00  0.00    -0.269 OA
ATOM     18  H   UNL     1      18.890 -21.037   1.910  1.00  0.00    +0.171 HD
BRANCH  16  19
ATOM     19  C   UNL     1      18.880 -22.245  -0.322  1.00  0.00    +0.040 A 
ATOM     20  C   UNL     1      20.091 -22.954  -0.346  1.00  0.00    +0.014 A 
ATOM     21  C   UNL     1      18.613 -21.300  -1.326  1.00  0.00    +0.014 A 
ATOM     22  C   UNL     1      21.006 -22.744  -1.383  1.00  0.00    +0.014 A 
ATOM     23  C   UNL     1      19.527 -21.091  -2.361  1.00  0.00    +0.014 A 
ATOM     24  C   UNL     1      20.712 -21.832  -2.401  1.00  0.00    +0.040 A 
BRANCH  24  25
ATOM     25  C   UNL     1      21.713 -21.601  -3.470  1.00  0.00    +0.253 C 
ATOM     26  O   UNL     1      22.765 -21.051  -3.154  1.00  0.00    -0.269 OA
ATOM     27  N   UNL     1      21.403 -21.990  -4.781  1.00  0.00    -0.339 N 
ATOM     28  C   UNL     1      20.606 -23.190  -5.053  1.00  0.00    +0.120 C 
ATOM     29  C   UNL     1      22.397 -21.662  -5.800  1.00  0.00    +0.120 C 
ATOM     30  C   UNL     1      19.959 -23.136  -6.433  1.00  0.00    +0.022 C 
ATOM     31  C   UNL     1      21.781 -21.595  -7.195  1.00  0.00    +0.022 C 
ATOM     32  C   UNL     1      20.996 -22.861  -7.518  1.00  0.00    +0.004 C 
ENDBRANCH  24  25
ENDBRANCH  16  19
ENDBRANCH  12  15
ENDBRANCH   4  10
TORSDOF 6
ENDMDL
MODEL 2
REMARK VINA RESULT:    -8.435      4.759      6.987
REMARK INTER + INTRA:         -12.423
REMARK INTER:                 -11.418
REMARK INTRA:                  -1.005
REMARK UNBOUND:                -1.029
REMARK SMILES CCOC(=O)NC(=O)c1ccsc1NC(=O)c1ccc(C(=O)N2CCCCC2)cc1
REMARK SMILES IDX 4 1 5 2 6 3 7 4 8 5 3 7 2 8 1 9 9 10 10 11 13 12 11 13 12 14
REMARK SMILES IDX 14 15 15 16 16 17 17 19 18 20 30 21 19 22 29 23 20 24 21 25
REMARK SMILES IDX 22 26 23 27 24 28 28 29 25 30 27 31 26 32
REMARK H PARENT 6 6 14 18
ROOT
ATOM      1  C   UNL     1      15.541 -19.018   5.912  1.00  0.00    +0.414 C 
ATOM      2  O   UNL     1      15.750 -19.966   6.650  1.00  0.00    -0.224 OA
ATOM      3  N   UNL     1      15.768 -18.937   4.570  1.00  0.00    -0.257 N 
ATOM      4  C   UNL     1      16.239 -19.961   3.781  1.00  0.00    +0.263 C 
ATOM      5  O   UNL     1      16.524 -21.083   4.191  1.00  0.00    -0.269 OA
ATOM      6  H   UNL     1      15.513 -18.054   4.168  1.00  0.00    +0.176 HD
ENDROOT
BRANCH   1   7
ATOM      7  O   UNL     1      15.029 -17.824   6.319  1.00  0.00    -0.450 OA
BRANCH   7   8
ATOM      8  C   UNL     1      13.822 -17.404   5.662  1.00  0.00    +0.231 C 
ATOM      9  C   UNL     1      12.653 -18.257   6.115  1.00  0.00    +0.049 C 
ENDBRANCH   7   8
ENDBRANCH   1   7
BRANCH   4  10
ATOM     10  C   UNL     1      16.382 -19.630   2.352  1.00  0.00    +0.075 A 
ATOM     11  C   UNL     1      15.531 -18.796   1.539  1.00  0.00    +0.028 A 
ATOM     12  C   UNL     1      17.439 -20.122   1.589  1.00  0.00    +0.108 A 
ATOM     13  C   UNL     1      15.965 -18.699   0.236  1.00  0.00    +0.068 A 
ATOM     14  S   UNL     1      17.390 -19.593  -0.022  1.00  0.00    -0.126 S 
BRANCH  12  15
ATOM     15  N   UNL     1      18.456 -20.945   2.054  1.00  0.00    -0.313 N 
ATOM     16  C   UNL     1      18.721 -22.250   1.688  1.00  0.00    +0.256 C 
ATOM     17  O   UNL     1      18.064 -22.960   0.936  1.00  0.00    -0.269 OA
ATOM     18  H   UNL     1      19.024 -20.522   2.788  1.00  0.00    +0.171 HD
BRANCH  16  19
ATOM     19  C   UNL     1      19.930 -22.849   2.333  1.00  0.00    +0.040 A 
ATOM     20  C   UNL     1      21.133 -23.042   1.637  1.00  0.00    +0.014 A 
ATOM     21  C   UNL     1      19.832 -23.262   3.671  1.00  0.00    +0.014 A 
ATOM     22  C   UNL     1      22.235 -23.610   2.286  1.00  0.00    +0.014 A 
ATOM     23  C   UNL     1      20.931 -23.829   4.319  1.00  0.00    +0.014 A 
ATOM     24  C   UNL     1      22.140 -23.979   3.631  1.00  0.00    +0.040 A 
BRANCH  24  25
ATOM     25  C   UNL     1      23.309 -24.611   4.287  1.00  0.00    +0.253 C 
ATOM     26  O   UNL     1      23.403 -25.835   4.226  1.00  0.00    -0.269 OA
ATOM     27  N   UNL     1      24.227 -23.796   4.964  1.00  0.00    -0.339 N 
ATOM     28  C   UNL     1      24.555 -22.451   4.481  1.00  0.00    +0.120 C 
ATOM     29  C   UNL     1      25.312 -24.487   5.656  1.00  0.00    +0.120 C 
ATOM     30  C   UNL     1      25.123 -21.575   5.592  1.00  0.00    +0.022 C 
ATOM     31  C   UNL     1      25.902 -23.639   6.780  1.00  0.00    +0.022 C 
ATOM     32  C   UNL     1      26.302 -22.255   6.282  1.00  0.00    +0.004 C 
ENDBRANCH  24  25
ENDBRANCH  16  19
ENDBRANCH  12  15
ENDBRANCH   4  10
TORSDOF 6
ENDMDL
MODEL 3
REMARK VINA RESULT:    -8.234      4.078      5.975
REMARK INTER + INTRA:         -12.152
REMARK INTER:                 -11.372
REMARK INTRA:                  -0.780
REMARK UNBOUND:                -1.029
REMARK SMILES CCOC(=O)NC(=O)c1ccsc1NC(=O)c1ccc(C(=O)N2CCCCC2)cc1
REMARK SMILES IDX 4 1 5 2 6 3 7 4 8 5 3 7 2 8 1 9 9 10 10 11 13 12 11 13 12 14
REMARK SMILES IDX 14 15 15 16 16 17 17 19 18 20 30 21 19 22 29 23 20 24 21 25
REMARK SMILES IDX 22 26 23 27 24 28 28 29 25 30 27 31 26 32
REMARK H PARENT 6 6 14 18
ROOT
ATOM      1  C   UNL     1      16.047 -19.311  -0.094  1.00  0.00    +0.414 C 
ATOM      2  O   UNL     1      16.523 -18.518  -0.888  1.00  0.00    -0.224 OA
ATOM      3  N   UNL     1      15.389 -19.038   1.068  1.00  0.00    -0.257 N 
ATOM      4  C   UNL     1      15.094 -17.779   1.537  1.00  0.00    +0.263 C 
ATOM      5  O   UNL     1      15.396 -16.734   0.967  1.00  0.00    -0.269 OA
ATOM      6  H   UNL     1      15.079 -19.856   1.560  1.00  0.00    +0.176 HD
ENDROOT
BRANCH   1   7
ATOM      7  O   UNL     1      16.096 -20.664  -0.236  1.00  0.00    -0.450 OA
BRANCH   7   8
ATOM      8  C   UNL     1      17.142 -21.167  -1.083  1.00  0.00    +0.231 C 
ATOM      9  C   UNL     1      17.396 -22.633  -0.789  1.00  0.00    +0.049 C 
ENDBRANCH   7   8
ENDBRANCH   1   7
BRANCH   4  10
ATOM     10  C   UNL     1      14.357 -17.747   2.813  1.00  0.00    +0.075 A 
ATOM     11  C   UNL     1      13.259 -16.890   3.187  1.00  0.00    +0.028 A 
ATOM     12  C   UNL     1      14.668 -18.611   3.860  1.00  0.00    +0.108 A 
ATOM     13  C   UNL     1      12.803 -17.134   4.464  1.00  0.00    +0.068 A 
ATOM     14  S   UNL     1      13.674 -18.387   5.216  1.00  0.00    -0.126 S 
BRANCH  12  15
ATOM     15  N   UNL     1      15.662 -19.580   3.839  1.00  0.00    -0.313 N 
ATOM     16  C   UNL     1      15.563 -20.901   4.231  1.00  0.00    +0.256 C 
ATOM     17  O   UNL     1      14.598 -21.455   4.744  1.00  0.00    -0.269 OA
ATOM     18  H   UNL     1      16.572 -19.230   3.541  1.00  0.00    +0.171 HD
BRANCH  16  19
ATOM     19  C   UNL     1      16.806 -21.709   4.031  1.00  0.00    +0.040 A 
ATOM     20  C   UNL     1      17.191 -22.724   4.921  1.00  0.00    +0.014 A 
ATOM     21  C   UNL     1      17.626 -21.404   2.934  1.00  0.00    +0.014 A 
ATOM     22  C   UNL     1      18.365 -23.448   4.691  1.00  0.00    +0.014 A 
ATOM     23  C   UNL     1      18.799 -22.127   2.705  1.00  0.00    +0.014 A 
ATOM     24  C   UNL     1      19.154 -23.166   3.571  1.00  0.00    +0.040 A 
BRANCH  24  25
ATOM     25  C   UNL     1      20.412 -23.923   3.369  1.00  0.00    +0.253 C 
ATOM     26  O   UNL     1      21.293 -23.797   4.216  1.00  0.00    -0.269 OA
ATOM     27  N   UNL     1      20.547 -24.713   2.220  1.00  0.00    -0.339 N 
ATOM     28  C   UNL     1      19.403 -25.427   1.644  1.00  0.00    +0.120 C 
ATOM     29  C   UNL     1      21.840 -25.369   2.039  1.00  0.00    +0.120 C 
ATOM     30  C   UNL     1      19.629 -25.766   0.175  1.00  0.00    +0.022 C 
ATOM     31  C   UNL     1      22.103 -25.719   0.577  1.00  0.00    +0.022 C 
ATOM     32  C   UNL     1      20.946 -26.512  -0.022  1.00  0.00    +0.004 C 
ENDBRANCH  24  25
ENDBRANCH  16  19
ENDBRANCH  12  15
ENDBRANCH   4  10
TORSDOF 6
ENDMDL
MODEL 4
REMARK VINA RESULT:    -8.190      3.125      5.504
REMARK INTER + INTRA:         -12.092
REMARK INTER:                 -12.035
REMARK INTRA:                  -0.057
REMARK UNBOUND:                -1.029
REMARK SMILES CCOC(=O)NC(=O)c1ccsc1NC(=O)c1ccc(C(=O)N2CCCCC2)cc1
REMARK SMILES IDX 4 1 5 2 6 3 7 4 8 5 3 7 2 8 1 9 9 10 10 11 13 12 11 13 12 14
REMARK SMILES IDX 14 15 15 16 16 17 17 19 18 20 30 21 19 22 29 23 20 24 21 25
REMARK SMILES IDX 22 26 23 27 24 28 28 29 25 30 27 31 26 32
REMARK H PARENT 6 6 14 18
ROOT
ATOM      1  C   UNL     1      16.463 -21.102   5.559  1.00  0.00    +0.414 C 
ATOM      2  O   UNL     1      17.296 -20.965   6.439  1.00  0.00    -0.224 OA
ATOM      3  N   UNL     1      15.513 -20.209   5.160  1.00  0.00    -0.257 N 
ATOM      4  C   UNL     1      15.357 -18.938   5.661  1.00  0.00    +0.263 C 
ATOM      5  O   UNL     1      16.054 -18.447   6.545  1.00  0.00    -0.269 OA
ATOM      6  H   UNL     1      14.938 -20.540   4.407  1.00  0.00    +0.176 HD
ENDROOT
BRANCH   1   7
ATOM      7  O   UNL     1      16.330 -22.221   4.794  1.00  0.00    -0.450 OA
BRANCH   7   8
ATOM      8  C   UNL     1      17.480 -22.585   4.013  1.00  0.00    +0.231 C 
ATOM      9  C   UNL     1      17.054 -23.368   2.786  1.00  0.00    +0.049 C 
ENDBRANCH   7   8
ENDBRANCH   1   7
BRANCH   4  10
ATOM     10  C   UNL     1      14.266 -18.158   5.051  1.00  0.00    +0.075 A 
ATOM     11  C   UNL     1      13.203 -17.442   5.713  1.00  0.00    +0.028 A 
ATOM     12  C   UNL     1      14.148 -18.020   3.670  1.00  0.00    +0.108 A 
ATOM     13  C   UNL     1      12.352 -16.815   4.830  1.00  0.00    +0.068 A 
ATOM     14  S   UNL     1      12.819 -17.069   3.214  1.00  0.00    -0.126 S 
BRANCH  12  15
ATOM     15  N   UNL     1      15.010 -18.566   2.728  1.00  0.00    -0.313 N 
ATOM     16  C   UNL     1      15.518 -17.959   1.595  1.00  0.00    +0.256 C 
ATOM     17  O   UNL     1      15.247 -16.845   1.163  1.00  0.00    -0.269 OA
ATOM     18  H   UNL     1      15.233 -19.546   2.895  1.00  0.00    +0.171 HD
BRANCH  16  19
ATOM     19  C   UNL     1      16.471 -18.801   0.808  1.00  0.00    +0.040 A 
ATOM     20  C   UNL     1      16.815 -18.501  -0.519  1.00  0.00    +0.014 A 
ATOM     21  C   UNL     1      17.003 -19.948   1.418  1.00  0.00    +0.014 A 
ATOM     22  C   UNL     1      17.710 -19.323  -1.214  1.00  0.00    +0.014 A 
ATOM     23  C   UNL     1      17.895 -20.768   0.724  1.00  0.00    +0.014 A 
ATOM     24  C   UNL     1      18.267 -20.440  -0.583  1.00  0.00    +0.040 A 
BRANCH  24  25
ATOM     25  C   UNL     1      19.184 -21.315  -1.351  1.00  0.00    +0.253 C 
ATOM     26  O   UNL     1      19.294 -21.105  -2.557  1.00  0.00    -0.269 OA
ATOM     27  N   UNL     1      19.853 -22.348  -0.680  1.00  0.00    -0.339 N 
ATOM     28  C   UNL     1      20.309 -22.189   0.704  1.00  0.00    +0.120 C 
ATOM     29  C   UNL     1      20.679 -23.223  -1.508  1.00  0.00    +0.120 C 
ATOM     30  C   UNL     1      20.514 -23.536   1.390  1.00  0.00    +0.022 C 
ATOM     31  C   UNL     1      20.900 -24.584  -0.853  1.00  0.00    +0.022 C 
ATOM     32  C   UNL     1      21.430 -24.439   0.569  1.00  0.00    +0.004 C 
ENDBRANCH  24  25
ENDBRANCH  16  19
ENDBRANCH  12  15
ENDBRANCH   4  10
TORSDOF 6
ENDMDL
MODEL 5
REMARK VINA RESULT:    -7.933      3.225      8.662
REMARK INTER + INTRA:         -11.745
REMARK INTER:                 -10.548
REMARK INTRA:                  -1.197
REMARK UNBOUND:                -1.029
REMARK SMILES CCOC(=O)NC(=O)c1ccsc1NC(=O)c1ccc(C(=O)N2CCCCC2)cc1
REMARK SMILES IDX 4 1 5 2 6 3 7 4 8 5 3 7 2 8 1 9 9 10 10 11 13 12 11 13 12 14
REMARK SMILES IDX 14 15 15 16 16 17 17 19 18 20 30 21 19 22 29 23 20 24 21 25
REMARK SMILES IDX 22 26 23 27 24 28 28 29 25 30 27 31 26 32
REMARK H PARENT 6 6 14 18
ROOT
ATOM      1  C   UNL     1      17.966 -20.347  -1.665  1.00  0.00    +0.414 C 
ATOM      2  O   UNL     1      17.264 -20.726  -2.588  1.00  0.00    -0.224 OA
ATOM      3  N   UNL     1      19.046 -20.979  -1.123  1.00  0.00    -0.257 N 
ATOM      4  C   UNL     1      19.579 -22.166  -1.568  1.00  0.00    +0.263 C 
ATOM      5  O   UNL     1      19.141 -22.816  -2.514  1.00  0.00    -0.269 OA
ATOM      6  H   UNL     1      19.474 -20.474  -0.369  1.00  0.00    +0.176 HD
ENDROOT
BRANCH   1   7
ATOM      7  O   UNL     1      17.782 -19.182  -0.987  1.00  0.00    -0.450 OA
BRANCH   7   8
ATOM      8  C   UNL     1      16.465 -18.969  -0.454  1.00  0.00    +0.231 C 
ATOM      9  C   UNL     1      16.457 -19.220   1.042  1.00  0.00    +0.049 C 
ENDBRANCH   7   8
ENDBRANCH   1   7
BRANCH   4  10
ATOM     10  C   UNL     1      20.761 -22.636  -0.824  1.00  0.00    +0.075 A 
ATOM     11  C   UNL     1      22.062 -22.982  -1.342  1.00  0.00    +0.028 A 
ATOM     12  C   UNL     1      20.738 -22.800   0.559  1.00  0.00    +0.108 A 
ATOM     13  C   UNL     1      22.939 -23.382  -0.358  1.00  0.00    +0.068 A 
ATOM     14  S   UNL     1      22.220 -23.341   1.183  1.00  0.00    -0.126 S 
BRANCH  12  15
ATOM     15  N   UNL     1      19.650 -22.545   1.384  1.00  0.00    -0.313 N 
ATOM     16  C   UNL     1      18.719 -23.448   1.858  1.00  0.00    +0.256 C 
ATOM     17  O   UNL     1      18.629 -24.639   1.582  1.00  0.00    -0.269 OA
ATOM     18  H   UNL     1      19.525 -21.558   1.605  1.00  0.00    +0.171 HD
BRANCH  16  19
ATOM     19  C   UNL     1      17.693 -22.866   2.778  1.00  0.00    +0.040 A 
ATOM     20  C   UNL     1      16.328 -22.833   2.453  1.00  0.00    +0.014 A 
ATOM     21  C   UNL     1      18.130 -22.303   3.987  1.00  0.00    +0.014 A 
ATOM     22  C   UNL     1      15.409 -22.274   3.347  1.00  0.00    +0.014 A 
ATOM     23  C   UNL     1      17.212 -21.744   4.879  1.00  0.00    +0.014 A 
ATOM     24  C   UNL     1      15.849 -21.753   4.568  1.00  0.00    +0.040 A 
BRANCH  24  25
ATOM     25  C   UNL     1      14.860 -21.134   5.482  1.00  0.00    +0.253 C 
ATOM     26  O   UNL     1      14.575 -21.745   6.510  1.00  0.00    -0.269 OA
ATOM     27  N   UNL     1      14.280 -19.910   5.122  1.00  0.00    -0.339 N 
ATOM     28  C   UNL     1      15.042 -18.888   4.397  1.00  0.00    +0.120 C 
ATOM     29  C   UNL     1      13.255 -19.393   6.026  1.00  0.00    +0.120 C 
ATOM     30  C   UNL     1      14.125 -17.913   3.665  1.00  0.00    +0.022 C 
ATOM     31  C   UNL     1      12.315 -18.417   5.323  1.00  0.00    +0.022 C 
ATOM     32  C   UNL     1      13.090 -17.313   4.611  1.00  0.00    +0.004 C 
ENDBRANCH  24  25
ENDBRANCH  16  19
ENDBRANCH  12  15
ENDBRANCH   4  10
TORSDOF 6
ENDMDL
MODEL 6
REMARK VINA RESULT:    -7.908      1.293      2.133
REMARK INTER + INTRA:         -11.711
REMARK INTER:                 -10.646
REMARK INTRA:                  -1.064
REMARK UNBOUND:                -1.029
REMARK SMILES CCOC(=O)NC(=O)c1ccsc1NC(=O)c1ccc(C(=O)N2CCCCC2)cc1
REMARK SMILES IDX 4 1 5 2 6 3 7 4 8 5 3 7 2 8 1 9 9 10 10 11 13 12 11 13 12 14
REMARK SMILES IDX 14 15 15 16 16 17 17 19 18 20 30 21 19 22 29 23 20 24 21 25
REMARK SMILES IDX 22 26 23 27 24 28 28 29 25 30 27 31 26 32
REMARK H PARENT 6 6 14 18
ROOT
ATOM      1  C   UNL     1      14.649 -17.414   2.083  1.00  0.00    +0.414 C 
ATOM      2  O   UNL     1      15.201 -16.895   1.128  1.00  0.00    -0.224 OA
ATOM      3  N   UNL     1      15.040 -18.523   2.773  1.00  0.00    -0.257 N 
ATOM      4  C   UNL     1      16.188 -19.241   2.538  1.00  0.00    +0.263 C 
ATOM      5  O   UNL     1      17.010 -18.977   1.664  1.00  0.00    -0.269 OA
ATOM      6  H   UNL     1      14.427 -18.765   3.531  1.00  0.00    +0.176 HD
ENDROOT
BRANCH   1   7
ATOM      7  O   UNL     1      13.495 -16.960   2.644  1.00  0.00    -0.450 OA
BRANCH   7   8
ATOM      8  C   UNL     1      13.469 -16.926   4.080  1.00  0.00    +0.231 C 
ATOM      9  C   UNL     1      12.048 -17.091   4.583  1.00  0.00    +0.049 C 
ENDBRANCH   7   8
ENDBRANCH   1   7
BRANCH   4  10
ATOM     10  C   UNL     1      16.397 -20.393   3.435  1.00  0.00    +0.075 A 
ATOM     11  C   UNL     1      15.887 -20.588   4.770  1.00  0.00    +0.028 A 
ATOM     12  C   UNL     1      17.162 -21.492   3.050  1.00  0.00    +0.108 A 
ATOM     13  C   UNL     1      16.278 -21.788   5.320  1.00  0.00    +0.068 A 
ATOM     14  S   UNL     1      17.246 -22.688   4.249  1.00  0.00    -0.126 S 
BRANCH  12  15
ATOM     15  N   UNL     1      17.792 -21.646   1.822  1.00  0.00    -0.313 N 
ATOM     16  C   UNL     1      17.402 -22.449   0.767  1.00  0.00    +0.256 C 
ATOM     17  O   UNL     1      16.465 -23.238   0.739  1.00  0.00    -0.269 OA
ATOM     18  H   UNL     1      18.668 -21.131   1.742  1.00  0.00    +0.171 HD
BRANCH  16  19
ATOM     19  C   UNL     1      18.269 -22.351  -0.447  1.00  0.00    +0.040 A 
ATOM     20  C   UNL     1      18.252 -21.230  -1.292  1.00  0.00    +0.014 A 
ATOM     21  C   UNL     1      19.095 -23.441  -0.763  1.00  0.00    +0.014 A 
ATOM     22  C   UNL     1      19.080 -21.189  -2.419  1.00  0.00    +0.014 A 
ATOM     23  C   UNL     1      19.921 -23.401  -1.888  1.00  0.00    +0.014 A 
ATOM     24  C   UNL     1      19.930 -22.263  -2.701  1.00  0.00    +0.040 A 
BRANCH  24  25
ATOM     25  C   UNL     1      20.772 -22.211  -3.920  1.00  0.00    +0.253 C 
ATOM     26  O   UNL     1      20.200 -22.093  -5.001  1.00  0.00    -0.269 OA
ATOM     27  N   UNL     1      22.162 -22.330  -3.787  1.00  0.00    -0.339 N 
ATOM     28  C   UNL     1      22.869 -21.767  -2.633  1.00  0.00    +0.120 C 
ATOM     29  C   UNL     1      22.928 -22.352  -5.031  1.00  0.00    +0.120 C 
ATOM     30  C   UNL     1      24.221 -22.438  -2.416  1.00  0.00    +0.022 C 
ATOM     31  C   UNL     1      24.287 -23.023  -4.852  1.00  0.00    +0.022 C 
ATOM     32  C   UNL     1      25.061 -22.410  -3.690  1.00  0.00    +0.004 C 
ENDBRANCH  24  25
ENDBRANCH  16  19
ENDBRANCH  12  15
ENDBRANCH   4  10
TORSDOF 6
ENDMDL
MODEL 7
REMARK VINA RESULT:    -7.788      2.079      9.665
REMARK INTER + INTRA:         -11.549
REMARK INTER:                 -10.895
REMARK INTRA:                  -0.654
REMARK UNBOUND:                -1.029
REMARK SMILES CCOC(=O)NC(=O)c1ccsc1NC(=O)c1ccc(C(=O)N2CCCCC2)cc1
REMARK SMILES IDX 4 1 5 2 6 3 7 4 8 5 3 7 2 8 1 9 9 10 10 11 13 12 11 13 12 14
REMARK SMILES IDX 14 15 15 16 16 17 17 19 18 20 30 21 19 22 29 23 20 24 21 25
REMARK SMILES IDX 22 26 23 27 24 28 28 29 25 30 27 31 26 32
REMARK H PARENT 6 6 14 18
ROOT
ATOM      1  C   UNL     1      20.384 -21.853  -5.294  1.00  0.00    +0.414 C 
ATOM      2  O   UNL     1      19.767 -20.807  -5.410  1.00  0.00    -0.224 OA
ATOM      3  N   UNL     1      20.832 -22.435  -4.145  1.00  0.00    -0.257 N 
ATOM      4  C   UNL     1      20.615 -21.957  -2.875  1.00  0.00    +0.263 C 
ATOM      5  O   UNL     1      19.992 -20.931  -2.612  1.00  0.00    -0.269 OA
ATOM      6  H   UNL     1      21.314 -23.303  -4.293  1.00  0.00    +0.176 HD
ENDROOT
BRANCH   1   7
ATOM      7  O   UNL     1      20.751 -22.649  -6.335  1.00  0.00    -0.450 OA
BRANCH   7   8
ATOM      8  C   UNL     1      21.999 -22.319  -6.966  1.00  0.00    +0.231 C 
ATOM      9  C   UNL     1      21.750 -21.628  -8.292  1.00  0.00    +0.049 C 
ENDBRANCH   7   8
ENDBRANCH   1   7
BRANCH   4  10
ATOM     10  C   UNL     1      21.188 -22.779  -1.793  1.00  0.00    +0.075 A 
ATOM     11  C   UNL     1      22.262 -23.737  -1.875  1.00  0.00    +0.028 A 
ATOM     12  C   UNL     1      20.715 -22.700  -0.485  1.00  0.00    +0.108 A 
ATOM     13  C   UNL     1      22.546 -24.326  -0.663  1.00  0.00    +0.068 A 
ATOM     14  S   UNL     1      21.540 -23.736   0.576  1.00  0.00    -0.126 S 
BRANCH  12  15
ATOM     15  N   UNL     1      19.695 -21.868  -0.044  1.00  0.00    -0.313 N 
ATOM     16  C   UNL     1      18.351 -22.167   0.070  1.00  0.00    +0.256 C 
ATOM     17  O   UNL     1      17.787 -23.202  -0.266  1.00  0.00    -0.269 OA
ATOM     18  H   UNL     1      20.000 -20.918   0.163  1.00  0.00    +0.171 HD
BRANCH  16  19
ATOM     19  C   UNL     1      17.510 -21.066   0.633  1.00  0.00    +0.040 A 
ATOM     20  C   UNL     1      17.600 -20.665   1.975  1.00  0.00    +0.014 A 
ATOM     21  C   UNL     1      16.576 -20.446  -0.211  1.00  0.00    +0.014 A 
ATOM     22  C   UNL     1      16.789 -19.631   2.454  1.00  0.00    +0.014 A 
ATOM     23  C   UNL     1      15.765 -19.415   0.267  1.00  0.00    +0.014 A 
ATOM     24  C   UNL     1      15.890 -18.992   1.593  1.00  0.00    +0.040 A 
BRANCH  24  25
ATOM     25  C   UNL     1      15.016 -17.923   2.133  1.00  0.00    +0.253 C 
ATOM     26  O   UNL     1      14.825 -16.935   1.427  1.00  0.00    -0.269 OA
ATOM     27  N   UNL     1      14.480 -18.074   3.419  1.00  0.00    -0.339 N 
ATOM     28  C   UNL     1      14.085 -19.389   3.932  1.00  0.00    +0.120 C 
ATOM     29  C   UNL     1      13.693 -16.951   3.923  1.00  0.00    +0.120 C 
ATOM     30  C   UNL     1      14.039 -19.410   5.457  1.00  0.00    +0.022 C 
ATOM     31  C   UNL     1      13.631 -16.937   5.448  1.00  0.00    +0.022 C 
ATOM     32  C   UNL     1      13.166 -18.282   5.998  1.00  0.00    +0.004 C 
ENDBRANCH  24  25
ENDBRANCH  16  19
ENDBRANCH  12  15
ENDBRANCH   4  10
TORSDOF 6
ENDMDL
MODEL 8
REMARK VINA RESULT:    -7.653      3.238      9.697
REMARK INTER + INTRA:         -11.367
REMARK INTER:                 -10.470
REMARK INTRA:                  -0.897
REMARK UNBOUND:                -1.029
REMARK SMILES CCOC(=O)NC(=O)c1ccsc1NC(=O)c1ccc(C(=O)N2CCCCC2)cc1
REMARK SMILES IDX 4 1 5 2 6 3 7 4 8 5 3 7 2 8 1 9 9 10 10 11 13 12 11 13 12 14
REMARK SMILES IDX 14 15 15 16 16 17 17 19 18 20 30 21 19 22 29 23 20 24 21 25
REMARK SMILES IDX 22 26 23 27 24 28 28 29 25 30 27 31 26 32
REMARK H PARENT 6 6 14 18
ROOT
ATOM      1  C   UNL     1      25.109 -21.888  -1.053  1.00  0.00    +0.414 C 
ATOM      2  O   UNL     1      24.778 -22.581  -0.106  1.00  0.00    -0.224 OA
ATOM      3  N   UNL     1      24.472 -21.748  -2.249  1.00  0.00    -0.257 N 
ATOM      4  C   UNL     1      23.279 -22.343  -2.588  1.00  0.00    +0.263 C 
ATOM      5  O   UNL     1      22.637 -23.089  -1.852  1.00  0.00    -0.269 OA
ATOM      6  H   UNL     1      24.928 -21.115  -2.880  1.00  0.00    +0.176 HD
ENDROOT
BRANCH   1   7
ATOM      7  O   UNL     1      26.223 -21.105  -1.081  1.00  0.00    -0.450 OA
BRANCH   7   8
ATOM      8  C   UNL     1      26.373 -20.190   0.017  1.00  0.00    +0.231 C 
ATOM      9  C   UNL     1      25.821 -18.828  -0.356  1.00  0.00    +0.049 C 
ENDBRANCH   7   8
ENDBRANCH   1   7
BRANCH   4  10
ATOM     10  C   UNL     1      22.784 -22.020  -3.939  1.00  0.00    +0.075 A 
ATOM     11  C   UNL     1      23.450 -22.214  -5.203  1.00  0.00    +0.028 A 
ATOM     12  C   UNL     1      21.525 -21.459  -4.142  1.00  0.00    +0.108 A 
ATOM     13  C   UNL     1      22.690 -21.801  -6.275  1.00  0.00    +0.068 A 
ATOM     14  S   UNL     1      21.181 -21.189  -5.781  1.00  0.00    -0.126 S 
BRANCH  12  15
ATOM     15  N   UNL     1      20.607 -21.153  -3.146  1.00  0.00    -0.313 N 
ATOM     16  C   UNL     1      19.524 -21.905  -2.734  1.00  0.00    +0.256 C 
ATOM     17  O   UNL     1      19.119 -22.955  -3.219  1.00  0.00    -0.269 OA
ATOM     18  H   UNL     1      20.749 -20.236  -2.724  1.00  0.00    +0.171 HD
BRANCH  16  19
ATOM     19  C   UNL     1      18.755 -21.323  -1.591  1.00  0.00    +0.040 A 
ATOM     20  C   UNL     1      17.612 -20.532  -1.783  1.00  0.00    +0.014 A 
ATOM     21  C   UNL     1      19.227 -21.551  -0.289  1.00  0.00    +0.014 A 
ATOM     22  C   UNL     1      16.929 -20.008  -0.680  1.00  0.00    +0.014 A 
ATOM     23  C   UNL     1      18.546 -21.027   0.812  1.00  0.00    +0.014 A 
ATOM     24  C   UNL     1      17.383 -20.276   0.615  1.00  0.00    +0.040 A 
BRANCH  24  25
ATOM     25  C   UNL     1      16.664 -19.680   1.766  1.00  0.00    +0.253 C 
ATOM     26  O   UNL     1      16.214 -18.545   1.629  1.00  0.00    -0.269 OA
ATOM     27  N   UNL     1      16.559 -20.418   2.953  1.00  0.00    -0.339 N 
ATOM     28  C   UNL     1      16.409 -21.876   2.935  1.00  0.00    +0.120 C 
ATOM     29  C   UNL     1      15.910 -19.743   4.074  1.00  0.00    +0.120 C 
ATOM     30  C   UNL     1      16.836 -22.505   4.256  1.00  0.00    +0.022 C 
ATOM     31  C   UNL     1      16.320 -20.344   5.416  1.00  0.00    +0.022 C 
ATOM     32  C   UNL     1      16.116 -21.855   5.434  1.00  0.00    +0.004 C 
ENDBRANCH  24  25
ENDBRANCH  16  19
ENDBRANCH  12  15
ENDBRANCH   4  10
TORSDOF 6
ENDMDL
MODEL 9
REMARK VINA RESULT:    -7.577      3.505      9.526
REMARK INTER + INTRA:         -11.263
REMARK INTER:                 -10.569
REMARK INTRA:                  -0.695
REMARK UNBOUND:                -1.029
REMARK SMILES CCOC(=O)NC(=O)c1ccsc1NC(=O)c1ccc(C(=O)N2CCCCC2)cc1
REMARK SMILES IDX 4 1 5 2 6 3 7 4 8 5 3 7 2 8 1 9 9 10 10 11 13 12 11 13 12 14
REMARK SMILES IDX 14 15 15 16 16 17 17 19 18 20 30 21 19 22 29 23 20 24 21 25
REMARK SMILES IDX 22 26 23 27 24 28 28 29 25 30 27 31 26 32
REMARK H PARENT 6 6 14 18
ROOT
ATOM      1  C   UNL     1      24.989 -21.627   1.358  1.00  0.00    +0.414 C 
ATOM      2  O   UNL     1      24.651 -21.609   2.530  1.00  0.00    -0.224 OA
ATOM      3  N   UNL     1      24.391 -22.288   0.326  1.00  0.00    -0.257 N 
ATOM      4  C   UNL     1      23.237 -23.029   0.419  1.00  0.00    +0.263 C 
ATOM      5  O   UNL     1      22.598 -23.198   1.455  1.00  0.00    -0.269 OA
ATOM      6  H   UNL     1      24.846 -22.152  -0.558  1.00  0.00    +0.176 HD
ENDROOT
BRANCH   1   7
ATOM      7  O   UNL     1      26.071 -20.968   0.860  1.00  0.00    -0.450 OA
BRANCH   7   8
ATOM      8  C   UNL     1      25.888 -20.343  -0.421  1.00  0.00    +0.231 C 
ATOM      9  C   UNL     1      25.747 -18.842  -0.257  1.00  0.00    +0.049 C 
ENDBRANCH   7   8
ENDBRANCH   1   7
BRANCH   4  10
ATOM     10  C   UNL     1      22.780 -23.632  -0.846  1.00  0.00    +0.075 A 
ATOM     11  C   UNL     1      23.513 -24.495  -1.738  1.00  0.00    +0.028 A 
ATOM     12  C   UNL     1      21.495 -23.414  -1.339  1.00  0.00    +0.108 A 
ATOM     13  C   UNL     1      22.774 -24.880  -2.835  1.00  0.00    +0.068 A 
ATOM     14  S   UNL     1      21.206 -24.221  -2.803  1.00  0.00    -0.126 S 
BRANCH  12  15
ATOM     15  N   UNL     1      20.516 -22.643  -0.726  1.00  0.00    -0.313 N 
ATOM     16  C   UNL     1      19.751 -21.642  -1.293  1.00  0.00    +0.256 C 
ATOM     17  O   UNL     1      19.842 -21.188  -2.428  1.00  0.00    -0.269 OA
ATOM     18  H   UNL     1      20.409 -22.830   0.270  1.00  0.00    +0.171 HD
BRANCH  16  19
ATOM     19  C   UNL     1      18.736 -21.035  -0.378  1.00  0.00    +0.040 A 
ATOM     20  C   UNL     1      17.592 -20.379  -0.858  1.00  0.00    +0.014 A 
ATOM     21  C   UNL     1      18.968 -21.097   1.005  1.00  0.00    +0.014 A 
ATOM     22  C   UNL     1      16.673 -19.825   0.040  1.00  0.00    +0.014 A 
ATOM     23  C   UNL     1      18.052 -20.543   1.901  1.00  0.00    +0.014 A 
ATOM     24  C   UNL     1      16.892 -19.929   1.417  1.00  0.00    +0.040 A 
BRANCH  24  25
ATOM     25  C   UNL     1      15.923 -19.302   2.348  1.00  0.00    +0.253 C 
ATOM     26  O   UNL     1      15.350 -18.284   1.970  1.00  0.00    -0.269 OA
ATOM     27  N   UNL     1      15.732 -19.877   3.612  1.00  0.00    -0.339 N 
ATOM     28  C   UNL     1      15.789 -21.329   3.807  1.00  0.00    +0.120 C 
ATOM     29  C   UNL     1      14.825 -19.167   4.510  1.00  0.00    +0.120 C 
ATOM     30  C   UNL     1      16.081 -21.693   5.259  1.00  0.00    +0.022 C 
ATOM     31  C   UNL     1      15.094 -19.504   5.975  1.00  0.00    +0.022 C 
ATOM     32  C   UNL     1      15.099 -21.011   6.207  1.00  0.00    +0.004 C 
ENDBRANCH  24  25
ENDBRANCH  16  19
ENDBRANCH  12  15
ENDBRANCH   4  10
TORSDOF 6
ENDMDL
