MODEL 1
REMARK VINA RESULT:    -9.144      0.000      0.000
REMARK INTER + INTRA:         -13.247
REMARK INTER:                 -12.351
REMARK INTRA:                  -0.896
REMARK UNBOUND:                -0.896
REMARK SMILES CCOC(=O)NC(=O)c1ccsc1NC(=O)c1ccc(C(=O)N2CCCCC2)c(F)c1
REMARK SMILES IDX 4 1 5 2 6 3 7 4 8 5 3 7 2 8 1 9 9 10 10 11 13 12 11 13 12 14
REMARK SMILES IDX 14 15 15 16 16 17 17 19 18 20 31 21 19 22 29 23 20 24 30 25
REMARK SMILES IDX 21 26 22 27 23 28 24 29 28 30 25 31 27 32 26 33
REMARK H PARENT 6 6 14 18
ROOT
ATOM      1  C   UNL     1      15.733 -20.935   6.114  1.00  0.00    +0.414 C 
ATOM      2  O   UNL     1      16.475 -20.804   7.073  1.00  0.00    -0.224 OA
ATOM      3  N   UNL     1      14.906 -19.999   5.566  1.00  0.00    -0.257 N 
ATOM      4  C   UNL     1      14.859 -18.675   5.929  1.00  0.00    +0.263 C 
ATOM      5  O   UNL     1      15.570 -18.157   6.786  1.00  0.00    -0.269 OA
ATOM      6  H   UNL     1      14.377 -20.334   4.782  1.00  0.00    +0.176 HD
ENDROOT
BRANCH   1   7
ATOM      7  O   UNL     1      15.581 -22.089   5.411  1.00  0.00    -0.450 OA
BRANCH   7   8
ATOM      8  C   UNL     1      16.292 -22.161   4.164  1.00  0.00    +0.231 C 
ATOM      9  C   UNL     1      17.763 -22.436   4.415  1.00  0.00    +0.049 C 
ENDBRANCH   7   8
ENDBRANCH   1   7
BRANCH   4  10
ATOM     10  C   UNL     1      13.880 -17.863   5.184  1.00  0.00    +0.075 A 
ATOM     11  C   UNL     1      12.861 -16.990   5.715  1.00  0.00    +0.028 A 
ATOM     12  C   UNL     1      13.852 -17.845   3.793  1.00  0.00    +0.108 A 
ATOM     13  C   UNL     1      12.121 -16.376   4.729  1.00  0.00    +0.068 A 
ATOM     14  S   UNL     1      12.642 -16.828   3.173  1.00  0.00    -0.126 S 
BRANCH  12  15
ATOM     15  N   UNL     1      14.705 -18.554   2.958  1.00  0.00    -0.313 N 
ATOM     16  C   UNL     1      15.312 -18.112   1.799  1.00  0.00    +0.256 C 
ATOM     17  O   UNL     1      15.169 -17.029   1.246  1.00  0.00    -0.269 OA
ATOM     18  H   UNL     1      14.847 -19.523   3.245  1.00  0.00    +0.171 HD
BRANCH  16  19
ATOM     19  C   UNL     1      16.221 -19.102   1.147  1.00  0.00    +0.043 A 
ATOM     20  C   UNL     1      15.981 -19.610  -0.140  1.00  0.00    +0.015 A 
ATOM     21  C   UNL     1      17.335 -19.547   1.871  1.00  0.00    +0.054 A 
ATOM     22  C   UNL     1      16.859 -20.546  -0.698  1.00  0.00    +0.018 A 
ATOM     23  C   UNL     1      18.204 -20.478   1.310  1.00  0.00    +0.136 A 
ATOM     24  C   UNL     1      17.963 -20.993   0.039  1.00  0.00    +0.075 A 
ATOM     25  F   UNL     1      19.276 -20.861   2.016  1.00  0.00    -0.206 F 
BRANCH  24  26
ATOM     26  C   UNL     1      18.886 -21.958  -0.586  1.00  0.00    +0.256 C 
ATOM     27  O   UNL     1      19.585 -21.544  -1.509  1.00  0.00    -0.269 OA
ATOM     28  N   UNL     1      18.907 -23.278  -0.140  1.00  0.00    -0.339 N 
ATOM     29  C   UNL     1      19.908 -24.174  -0.716  1.00  0.00    +0.120 C 
ATOM     30  C   UNL     1      17.920 -23.868   0.769  1.00  0.00    +0.120 C 
ATOM     31  C   UNL     1      20.212 -25.350   0.203  1.00  0.00    +0.022 C 
ATOM     32  C   UNL     1      17.674 -25.340   0.455  1.00  0.00    +0.022 C 
ATOM     33  C   UNL     1      18.959 -26.166   0.525  1.00  0.00    +0.004 C 
ENDBRANCH  24  26
ENDBRANCH  16  19
ENDBRANCH  12  15
ENDBRANCH   4  10
TORSDOF 6
ENDMDL
MODEL 2
REMARK VINA RESULT:    -8.768      3.145      8.614
REMARK INTER + INTRA:         -12.740
REMARK INTER:                 -11.578
REMARK INTRA:                  -1.162
REMARK UNBOUND:                -0.896
REMARK SMILES CCOC(=O)NC(=O)c1ccsc1NC(=O)c1ccc(C(=O)N2CCCCC2)c(F)c1
REMARK SMILES IDX 4 1 5 2 6 3 7 4 8 5 3 7 2 8 1 9 9 10 10 11 13 12 11 13 12 14
REMARK SMILES IDX 14 15 15 16 16 17 17 19 18 20 31 21 19 22 29 23 20 24 30 25
REMARK SMILES IDX 21 26 22 27 23 28 24 29 28 30 25 31 27 32 26 33
REMARK H PARENT 6 6 14 18
ROOT
ATOM      1  C   UNL     1      18.710 -21.510  -1.762  1.00  0.00    +0.414 C 
ATOM      2  O   UNL     1      18.065 -22.334  -2.387  1.00  0.00    -0.224 OA
ATOM      3  N   UNL     1      19.775 -21.734  -0.940  1.00  0.00    -0.257 N 
ATOM      4  C   UNL     1      20.403 -22.945  -0.770  1.00  0.00    +0.263 C 
ATOM      5  O   UNL     1      20.095 -23.982  -1.352  1.00  0.00    -0.269 OA
ATOM      6  H   UNL     1      20.146 -20.902  -0.520  1.00  0.00    +0.176 HD
ENDROOT
BRANCH   1   7
ATOM      7  O   UNL     1      18.456 -20.174  -1.759  1.00  0.00    -0.450 OA
BRANCH   7   8
ATOM      8  C   UNL     1      17.158 -19.784  -1.280  1.00  0.00    +0.231 C 
ATOM      9  C   UNL     1      17.159 -19.712   0.235  1.00  0.00    +0.049 C 
ENDBRANCH   7   8
ENDBRANCH   1   7
BRANCH   4  10
ATOM     10  C   UNL     1      21.534 -22.928   0.173  1.00  0.00    +0.075 A 
ATOM     11  C   UNL     1      22.936 -23.110  -0.116  1.00  0.00    +0.028 A 
ATOM     12  C   UNL     1      21.351 -22.701   1.534  1.00  0.00    +0.108 A 
ATOM     13  C   UNL     1      23.727 -23.026   1.008  1.00  0.00    +0.068 A 
ATOM     14  S   UNL     1      22.807 -22.721   2.406  1.00  0.00    -0.126 S 
BRANCH  12  15
ATOM     15  N   UNL     1      20.132 -22.467   2.157  1.00  0.00    -0.313 N 
ATOM     16  C   UNL     1      19.460 -23.295   3.034  1.00  0.00    +0.256 C 
ATOM     17  O   UNL     1      19.777 -24.423   3.389  1.00  0.00    -0.269 OA
ATOM     18  H   UNL     1      19.692 -21.589   1.880  1.00  0.00    +0.171 HD
BRANCH  16  19
ATOM     19  C   UNL     1      18.185 -22.737   3.576  1.00  0.00    +0.043 A 
ATOM     20  C   UNL     1      16.965 -22.842   2.889  1.00  0.00    +0.015 A 
ATOM     21  C   UNL     1      18.232 -22.066   4.806  1.00  0.00    +0.054 A 
ATOM     22  C   UNL     1      15.803 -22.289   3.438  1.00  0.00    +0.018 A 
ATOM     23  C   UNL     1      17.072 -21.519   5.345  1.00  0.00    +0.136 A 
ATOM     24  C   UNL     1      15.863 -21.611   4.661  1.00  0.00    +0.075 A 
ATOM     25  F   UNL     1      17.145 -20.909   6.537  1.00  0.00    -0.206 F 
BRANCH  24  26
ATOM     26  C   UNL     1      14.617 -21.063   5.228  1.00  0.00    +0.256 C 
ATOM     27  O   UNL     1      13.909 -21.837   5.870  1.00  0.00    -0.269 OA
ATOM     28  N   UNL     1      14.281 -19.731   4.993  1.00  0.00    -0.339 N 
ATOM     29  C   UNL     1      13.092 -19.203   5.658  1.00  0.00    +0.120 C 
ATOM     30  C   UNL     1      14.957 -18.856   4.030  1.00  0.00    +0.120 C 
ATOM     31  C   UNL     1      13.144 -17.687   5.796  1.00  0.00    +0.022 C 
ATOM     32  C   UNL     1      13.990 -17.862   3.397  1.00  0.00    +0.022 C 
ATOM     33  C   UNL     1      13.291 -16.992   4.442  1.00  0.00    +0.004 C 
ENDBRANCH  24  26
ENDBRANCH  16  19
ENDBRANCH  12  15
ENDBRANCH   4  10
TORSDOF 6
ENDMDL
MODEL 3
REMARK VINA RESULT:    -8.576      4.509      6.112
REMARK INTER + INTRA:         -12.480
REMARK INTER:                 -11.344
REMARK INTRA:                  -1.136
REMARK UNBOUND:                -0.896
REMARK SMILES CCOC(=O)NC(=O)c1ccsc1NC(=O)c1ccc(C(=O)N2CCCCC2)c(F)c1
REMARK SMILES IDX 4 1 5 2 6 3 7 4 8 5 3 7 2 8 1 9 9 10 10 11 13 12 11 13 12 14
REMARK SMILES IDX 14 15 15 16 16 17 17 19 18 20 31 21 19 22 29 23 20 24 30 25
REMARK SMILES IDX 21 26 22 27 23 28 24 29 28 30 25 31 27 32 26 33
REMARK H PARENT 6 6 14 18
ROOT
ATOM      1  C   UNL     1      15.700 -19.084   6.072  1.00  0.00    +0.414 C 
ATOM      2  O   UNL     1      16.025 -20.020   6.783  1.00  0.00    -0.224 OA
ATOM      3  N   UNL     1      15.859 -18.966   4.723  1.00  0.00    -0.257 N 
ATOM      4  C   UNL     1      16.308 -19.962   3.889  1.00  0.00    +0.263 C 
ATOM      5  O   UNL     1      16.610 -21.096   4.251  1.00  0.00    -0.269 OA
ATOM      6  H   UNL     1      15.523 -18.098   4.349  1.00  0.00    +0.176 HD
ENDROOT
BRANCH   1   7
ATOM      7  O   UNL     1      15.119 -17.941   6.524  1.00  0.00    -0.450 OA
BRANCH   7   8
ATOM      8  C   UNL     1      14.000 -17.461   5.760  1.00  0.00    +0.231 C 
ATOM      9  C   UNL     1      12.746 -18.234   6.125  1.00  0.00    +0.049 C 
ENDBRANCH   7   8
ENDBRANCH   1   7
BRANCH   4  10
ATOM     10  C   UNL     1      16.390 -19.588   2.466  1.00  0.00    +0.075 A 
ATOM     11  C   UNL     1      15.481 -18.760   1.711  1.00  0.00    +0.028 A 
ATOM     12  C   UNL     1      17.439 -20.013   1.656  1.00  0.00    +0.108 A 
ATOM     13  C   UNL     1      15.865 -18.610   0.398  1.00  0.00    +0.068 A 
ATOM     14  S   UNL     1      17.311 -19.442   0.063  1.00  0.00    -0.126 S 
BRANCH  12  15
ATOM     15  N   UNL     1      18.502 -20.808   2.062  1.00  0.00    -0.313 N 
ATOM     16  C   UNL     1      18.721 -22.139   1.767  1.00  0.00    +0.256 C 
ATOM     17  O   UNL     1      17.990 -22.896   1.141  1.00  0.00    -0.269 OA
ATOM     18  H   UNL     1      19.158 -20.331   2.681  1.00  0.00    +0.171 HD
BRANCH  16  19
ATOM     19  C   UNL     1      19.990 -22.705   2.314  1.00  0.00    +0.043 A 
ATOM     20  C   UNL     1      20.041 -23.403   3.531  1.00  0.00    +0.015 A 
ATOM     21  C   UNL     1      21.169 -22.501   1.584  1.00  0.00    +0.054 A 
ATOM     22  C   UNL     1      21.260 -23.901   4.003  1.00  0.00    +0.018 A 
ATOM     23  C   UNL     1      22.378 -23.000   2.059  1.00  0.00    +0.136 A 
ATOM     24  C   UNL     1      22.433 -23.682   3.272  1.00  0.00    +0.075 A 
ATOM     25  F   UNL     1      23.482 -22.814   1.322  1.00  0.00    -0.206 F 
BRANCH  24  26
ATOM     26  C   UNL     1      23.698 -24.243   3.779  1.00  0.00    +0.256 C 
ATOM     27  O   UNL     1      23.812 -25.467   3.763  1.00  0.00    -0.269 OA
ATOM     28  N   UNL     1      24.680 -23.388   4.277  1.00  0.00    -0.339 N 
ATOM     29  C   UNL     1      25.957 -23.977   4.674  1.00  0.00    +0.120 C 
ATOM     30  C   UNL     1      24.484 -21.961   4.551  1.00  0.00    +0.120 C 
ATOM     31  C   UNL     1      27.086 -22.956   4.648  1.00  0.00    +0.022 C 
ATOM     32  C   UNL     1      25.306 -21.500   5.750  1.00  0.00    +0.022 C 
ATOM     33  C   UNL     1      26.800 -21.760   5.558  1.00  0.00    +0.004 C 
ENDBRANCH  24  26
ENDBRANCH  16  19
ENDBRANCH  12  15
ENDBRANCH   4  10
TORSDOF 6
ENDMDL
MODEL 4
REMARK VINA RESULT:    -8.575      3.552      9.057
REMARK INTER + INTRA:         -12.479
REMARK INTER:                 -11.260
REMARK INTRA:                  -1.219
REMARK UNBOUND:                -0.896
REMARK SMILES CCOC(=O)NC(=O)c1ccsc1NC(=O)c1ccc(C(=O)N2CCCCC2)c(F)c1
REMARK SMILES IDX 4 1 5 2 6 3 7 4 8 5 3 7 2 8 1 9 9 10 10 11 13 12 11 13 12 14
REMARK SMILES IDX 14 15 15 16 16 17 17 19 18 20 31 21 19 22 29 23 20 24 30 25
REMARK SMILES IDX 21 26 22 27 23 28 24 29 28 30 25 31 27 32 26 33
REMARK H PARENT 6 6 14 18
ROOT
ATOM      1  C   UNL     1      19.779 -21.989  -2.838  1.00  0.00    +0.414 C 
ATOM      2  O   UNL     1      18.650 -22.444  -2.914  1.00  0.00    -0.224 OA
ATOM      3  N   UNL     1      20.674 -22.145  -1.821  1.00  0.00    -0.257 N 
ATOM      4  C   UNL     1      20.503 -22.971  -0.736  1.00  0.00    +0.263 C 
ATOM      5  O   UNL     1      19.526 -23.690  -0.550  1.00  0.00    -0.269 OA
ATOM      6  H   UNL     1      21.545 -21.669  -1.971  1.00  0.00    +0.176 HD
ENDROOT
BRANCH   1   7
ATOM      7  O   UNL     1      20.354 -21.197  -3.782  1.00  0.00    -0.450 OA
BRANCH   7   8
ATOM      8  C   UNL     1      20.247 -21.660  -5.139  1.00  0.00    +0.231 C 
ATOM      9  C   UNL     1      21.507 -22.404  -5.540  1.00  0.00    +0.049 C 
ENDBRANCH   7   8
ENDBRANCH   1   7
BRANCH   4  10
ATOM     10  C   UNL     1      21.619 -22.967   0.226  1.00  0.00    +0.075 A 
ATOM     11  C   UNL     1      23.025 -23.155  -0.042  1.00  0.00    +0.028 A 
ATOM     12  C   UNL     1      21.414 -22.748   1.585  1.00  0.00    +0.108 A 
ATOM     13  C   UNL     1      23.797 -23.083   1.096  1.00  0.00    +0.068 A 
ATOM     14  S   UNL     1      22.855 -22.782   2.481  1.00  0.00    -0.126 S 
BRANCH  12  15
ATOM     15  N   UNL     1      20.186 -22.511   2.189  1.00  0.00    -0.313 N 
ATOM     16  C   UNL     1      19.454 -23.375   2.978  1.00  0.00    +0.256 C 
ATOM     17  O   UNL     1      19.714 -24.540   3.252  1.00  0.00    -0.269 OA
ATOM     18  H   UNL     1      19.791 -21.596   1.970  1.00  0.00    +0.171 HD
BRANCH  16  19
ATOM     19  C   UNL     1      18.186 -22.807   3.526  1.00  0.00    +0.043 A 
ATOM     20  C   UNL     1      16.962 -22.901   2.844  1.00  0.00    +0.015 A 
ATOM     21  C   UNL     1      18.243 -22.137   4.755  1.00  0.00    +0.054 A 
ATOM     22  C   UNL     1      15.807 -22.340   3.397  1.00  0.00    +0.018 A 
ATOM     23  C   UNL     1      17.090 -21.581   5.300  1.00  0.00    +0.136 A 
ATOM     24  C   UNL     1      15.877 -21.662   4.620  1.00  0.00    +0.075 A 
ATOM     25  F   UNL     1      17.173 -20.972   6.491  1.00  0.00    -0.206 F 
BRANCH  24  26
ATOM     26  C   UNL     1      14.638 -21.105   5.192  1.00  0.00    +0.256 C 
ATOM     27  O   UNL     1      13.924 -21.874   5.833  1.00  0.00    -0.269 OA
ATOM     28  N   UNL     1      14.314 -19.769   4.963  1.00  0.00    -0.339 N 
ATOM     29  C   UNL     1      13.132 -19.232   5.633  1.00  0.00    +0.120 C 
ATOM     30  C   UNL     1      14.997 -18.897   4.002  1.00  0.00    +0.120 C 
ATOM     31  C   UNL     1      13.199 -17.717   5.776  1.00  0.00    +0.022 C 
ATOM     32  C   UNL     1      14.038 -17.891   3.374  1.00  0.00    +0.022 C 
ATOM     33  C   UNL     1      13.350 -17.019   4.424  1.00  0.00    +0.004 C 
ENDBRANCH  24  26
ENDBRANCH  16  19
ENDBRANCH  12  15
ENDBRANCH   4  10
TORSDOF 6
ENDMDL
MODEL 5
REMARK VINA RESULT:    -8.569      2.127      4.275
REMARK INTER + INTRA:         -12.472
REMARK INTER:                 -11.590
REMARK INTRA:                  -0.882
REMARK UNBOUND:                -0.896
REMARK SMILES CCOC(=O)NC(=O)c1ccsc1NC(=O)c1ccc(C(=O)N2CCCCC2)c(F)c1
REMARK SMILES IDX 4 1 5 2 6 3 7 4 8 5 3 7 2 8 1 9 9 10 10 11 13 12 11 13 12 14
REMARK SMILES IDX 14 15 15 16 16 17 17 19 18 20 31 21 19 22 29 23 20 24 30 25
REMARK SMILES IDX 21 26 22 27 23 28 24 29 28 30 25 31 27 32 26 33
REMARK H PARENT 6 6 14 18
ROOT
ATOM      1  C   UNL     1      16.037 -19.225  -0.142  1.00  0.00    +0.414 C 
ATOM      2  O   UNL     1      16.577 -18.415  -0.876  1.00  0.00    -0.224 OA
ATOM      3  N   UNL     1      15.384 -18.983   1.031  1.00  0.00    -0.257 N 
ATOM      4  C   UNL     1      15.103 -17.737   1.537  1.00  0.00    +0.263 C 
ATOM      5  O   UNL     1      15.388 -16.677   0.989  1.00  0.00    -0.269 OA
ATOM      6  H   UNL     1      15.024 -19.809   1.473  1.00  0.00    +0.176 HD
ENDROOT
BRANCH   1   7
ATOM      7  O   UNL     1      16.010 -20.566  -0.365  1.00  0.00    -0.450 OA
BRANCH   7   8
ATOM      8  C   UNL     1      17.242 -21.152  -0.817  1.00  0.00    +0.231 C 
ATOM      9  C   UNL     1      17.125 -22.664  -0.843  1.00  0.00    +0.049 C 
ENDBRANCH   7   8
ENDBRANCH   1   7
BRANCH   4  10
ATOM     10  C   UNL     1      14.383 -17.740   2.823  1.00  0.00    +0.075 A 
ATOM     11  C   UNL     1      13.278 -16.903   3.225  1.00  0.00    +0.028 A 
ATOM     12  C   UNL     1      14.709 -18.628   3.844  1.00  0.00    +0.108 A 
ATOM     13  C   UNL     1      12.839 -17.180   4.501  1.00  0.00    +0.068 A 
ATOM     14  S   UNL     1      13.731 -18.439   5.217  1.00  0.00    -0.126 S 
BRANCH  12  15
ATOM     15  N   UNL     1      15.711 -19.588   3.789  1.00  0.00    -0.313 N 
ATOM     16  C   UNL     1      15.631 -20.913   4.167  1.00  0.00    +0.256 C 
ATOM     17  O   UNL     1      14.680 -21.489   4.680  1.00  0.00    -0.269 OA
ATOM     18  H   UNL     1      16.608 -19.226   3.463  1.00  0.00    +0.171 HD
BRANCH  16  19
ATOM     19  C   UNL     1      16.874 -21.710   3.938  1.00  0.00    +0.043 A 
ATOM     20  C   UNL     1      17.216 -22.816   4.733  1.00  0.00    +0.015 A 
ATOM     21  C   UNL     1      17.730 -21.309   2.904  1.00  0.00    +0.054 A 
ATOM     22  C   UNL     1      18.399 -23.518   4.482  1.00  0.00    +0.018 A 
ATOM     23  C   UNL     1      18.905 -22.013   2.660  1.00  0.00    +0.136 A 
ATOM     24  C   UNL     1      19.253 -23.103   3.454  1.00  0.00    +0.075 A 
ATOM     25  F   UNL     1      19.688 -21.622   1.645  1.00  0.00    -0.206 F 
BRANCH  24  26
ATOM     26  C   UNL     1      20.480 -23.880   3.196  1.00  0.00    +0.256 C 
ATOM     27  O   UNL     1      21.442 -23.663   3.929  1.00  0.00    -0.269 OA
ATOM     28  N   UNL     1      20.512 -24.783   2.136  1.00  0.00    -0.339 N 
ATOM     29  C   UNL     1      21.709 -25.605   1.979  1.00  0.00    +0.120 C 
ATOM     30  C   UNL     1      19.487 -24.883   1.091  1.00  0.00    +0.120 C 
ATOM     31  C   UNL     1      21.423 -26.885   1.204  1.00  0.00    +0.022 C 
ATOM     32  C   UNL     1      20.089 -25.273  -0.254  1.00  0.00    +0.022 C 
ATOM     33  C   UNL     1      20.846 -26.599  -0.183  1.00  0.00    +0.004 C 
ENDBRANCH  24  26
ENDBRANCH  16  19
ENDBRANCH  12  15
ENDBRANCH   4  10
TORSDOF 6
ENDMDL
MODEL 6
REMARK VINA RESULT:    -8.433      3.465      5.607
REMARK INTER + INTRA:         -12.287
REMARK INTER:                 -11.430
REMARK INTRA:                  -0.857
REMARK UNBOUND:                -0.896
REMARK SMILES CCOC(=O)NC(=O)c1ccsc1NC(=O)c1ccc(C(=O)N2CCCCC2)c(F)c1
REMARK SMILES IDX 4 1 5 2 6 3 7 4 8 5 3 7 2 8 1 9 9 10 10 11 13 12 11 13 12 14
REMARK SMILES IDX 14 15 15 16 16 17 17 19 18 20 31 21 19 22 29 23 20 24 30 25
REMARK SMILES IDX 21 26 22 27 23 28 24 29 28 30 25 31 27 32 26 33
REMARK H PARENT 6 6 14 18
ROOT
ATOM      1  C   UNL     1      14.699 -17.367   2.017  1.00  0.00    +0.414 C 
ATOM      2  O   UNL     1      15.225 -17.014   0.975  1.00  0.00    -0.224 OA
ATOM      3  N   UNL     1      15.003 -18.459   2.777  1.00  0.00    -0.257 N 
ATOM      4  C   UNL     1      16.068 -19.301   2.562  1.00  0.00    +0.263 C 
ATOM      5  O   UNL     1      16.896 -19.169   1.665  1.00  0.00    -0.269 OA
ATOM      6  H   UNL     1      14.429 -18.558   3.594  1.00  0.00    +0.176 HD
ENDROOT
BRANCH   1   7
ATOM      7  O   UNL     1      13.663 -16.720   2.615  1.00  0.00    -0.450 OA
BRANCH   7   8
ATOM      8  C   UNL     1      13.500 -16.962   4.022  1.00  0.00    +0.231 C 
ATOM      9  C   UNL     1      12.030 -16.917   4.395  1.00  0.00    +0.049 C 
ENDBRANCH   7   8
ENDBRANCH   1   7
BRANCH   4  10
ATOM     10  C   UNL     1      16.184 -20.409   3.525  1.00  0.00    +0.075 A 
ATOM     11  C   UNL     1      15.492 -20.573   4.781  1.00  0.00    +0.028 A 
ATOM     12  C   UNL     1      17.022 -21.497   3.293  1.00  0.00    +0.108 A 
ATOM     13  C   UNL     1      15.835 -21.738   5.429  1.00  0.00    +0.068 A 
ATOM     14  S   UNL     1      16.972 -22.643   4.544  1.00  0.00    -0.126 S 
BRANCH  12  15
ATOM     15  N   UNL     1      17.822 -21.675   2.173  1.00  0.00    -0.313 N 
ATOM     16  C   UNL     1      17.517 -22.374   1.021  1.00  0.00    +0.256 C 
ATOM     17  O   UNL     1      16.507 -23.025   0.786  1.00  0.00    -0.269 OA
ATOM     18  H   UNL     1      18.750 -21.260   2.261  1.00  0.00    +0.171 HD
BRANCH  16  19
ATOM     19  C   UNL     1      18.574 -22.341  -0.034  1.00  0.00    +0.043 A 
ATOM     20  C   UNL     1      18.925 -21.163  -0.711  1.00  0.00    +0.015 A 
ATOM     21  C   UNL     1      19.211 -23.545  -0.363  1.00  0.00    +0.054 A 
ATOM     22  C   UNL     1      19.914 -21.192  -1.700  1.00  0.00    +0.018 A 
ATOM     23  C   UNL     1      20.194 -23.566  -1.348  1.00  0.00    +0.136 A 
ATOM     24  C   UNL     1      20.536 -22.402  -2.030  1.00  0.00    +0.075 A 
ATOM     25  F   UNL     1      20.805 -24.728  -1.618  1.00  0.00    -0.206 F 
BRANCH  24  26
ATOM     26  C   UNL     1      21.594 -22.397  -3.057  1.00  0.00    +0.256 C 
ATOM     27  O   UNL     1      22.750 -22.547  -2.667  1.00  0.00    -0.269 OA
ATOM     28  N   UNL     1      21.256 -22.194  -4.393  1.00  0.00    -0.339 N 
ATOM     29  C   UNL     1      22.321 -22.299  -5.387  1.00  0.00    +0.120 C 
ATOM     30  C   UNL     1      19.938 -21.758  -4.864  1.00  0.00    +0.120 C 
ATOM     31  C   UNL     1      21.776 -22.624  -6.772  1.00  0.00    +0.022 C 
ATOM     32  C   UNL     1      20.045 -20.875  -6.102  1.00  0.00    +0.022 C 
ATOM     33  C   UNL     1      20.767 -21.579  -7.251  1.00  0.00    +0.004 C 
ENDBRANCH  24  26
ENDBRANCH  16  19
ENDBRANCH  12  15
ENDBRANCH   4  10
TORSDOF 6
ENDMDL
MODEL 7
REMARK VINA RESULT:    -8.243      3.810      9.660
REMARK INTER + INTRA:         -12.030
REMARK INTER:                 -11.633
REMARK INTRA:                  -0.397
REMARK UNBOUND:                -0.896
REMARK SMILES CCOC(=O)NC(=O)c1ccsc1NC(=O)c1ccc(C(=O)N2CCCCC2)c(F)c1
REMARK SMILES IDX 4 1 5 2 6 3 7 4 8 5 3 7 2 8 1 9 9 10 10 11 13 12 11 13 12 14
REMARK SMILES IDX 14 15 15 16 16 17 17 19 18 20 31 21 19 22 29 23 20 24 30 25
REMARK SMILES IDX 21 26 22 27 23 28 24 29 28 30 25 31 27 32 26 33
REMARK H PARENT 6 6 14 18
ROOT
ATOM      1  C   UNL     1      20.950 -21.388  -5.366  1.00  0.00    +0.414 C 
ATOM      2  O   UNL     1      19.880 -20.852  -5.598  1.00  0.00    -0.224 OA
ATOM      3  N   UNL     1      21.309 -22.083  -4.248  1.00  0.00    -0.257 N 
ATOM      4  C   UNL     1      20.463 -22.418  -3.219  1.00  0.00    +0.263 C 
ATOM      5  O   UNL     1      19.265 -22.149  -3.179  1.00  0.00    -0.269 OA
ATOM      6  H   UNL     1      22.250 -22.431  -4.271  1.00  0.00    +0.176 HD
ENDROOT
BRANCH   1   7
ATOM      7  O   UNL     1      22.020 -21.367  -6.205  1.00  0.00    -0.450 OA
BRANCH   7   8
ATOM      8  C   UNL     1      21.726 -21.122  -7.590  1.00  0.00    +0.231 C 
ATOM      9  C   UNL     1      22.370 -19.824  -8.040  1.00  0.00    +0.049 C 
ENDBRANCH   7   8
ENDBRANCH   1   7
BRANCH   4  10
ATOM     10  C   UNL     1      21.092 -23.176  -2.122  1.00  0.00    +0.075 A 
ATOM     11  C   UNL     1      22.148 -24.155  -2.210  1.00  0.00    +0.028 A 
ATOM     12  C   UNL     1      20.713 -22.995  -0.795  1.00  0.00    +0.108 A 
ATOM     13  C   UNL     1      22.503 -24.665  -0.982  1.00  0.00    +0.068 A 
ATOM     14  S   UNL     1      21.590 -23.975   0.278  1.00  0.00    -0.126 S 
BRANCH  12  15
ATOM     15  N   UNL     1      19.738 -22.114  -0.347  1.00  0.00    -0.313 N 
ATOM     16  C   UNL     1      18.634 -22.403   0.432  1.00  0.00    +0.256 C 
ATOM     17  O   UNL     1      18.265 -23.501   0.829  1.00  0.00    -0.269 OA
ATOM     18  H   UNL     1      19.862 -21.159  -0.682  1.00  0.00    +0.171 HD
BRANCH  16  19
ATOM     19  C   UNL     1      17.792 -21.223   0.793  1.00  0.00    +0.043 A 
ATOM     20  C   UNL     1      17.765 -20.686   2.089  1.00  0.00    +0.015 A 
ATOM     21  C   UNL     1      16.988 -20.659  -0.208  1.00  0.00    +0.054 A 
ATOM     22  C   UNL     1      16.948 -19.587   2.375  1.00  0.00    +0.018 A 
ATOM     23  C   UNL     1      16.178 -19.566   0.084  1.00  0.00    +0.136 A 
ATOM     24  C   UNL     1      16.139 -19.039   1.372  1.00  0.00    +0.075 A 
ATOM     25  F   UNL     1      15.444 -19.032  -0.902  1.00  0.00    -0.206 F 
BRANCH  24  26
ATOM     26  C   UNL     1      15.310 -17.864   1.695  1.00  0.00    +0.256 C 
ATOM     27  O   UNL     1      15.437 -16.876   0.975  1.00  0.00    -0.269 OA
ATOM     28  N   UNL     1      14.457 -17.904   2.797  1.00  0.00    -0.339 N 
ATOM     29  C   UNL     1      13.579 -16.758   3.020  1.00  0.00    +0.120 C 
ATOM     30  C   UNL     1      14.465 -18.954   3.821  1.00  0.00    +0.120 C 
ATOM     31  C   UNL     1      12.356 -17.132   3.847  1.00  0.00    +0.022 C 
ATOM     32  C   UNL     1      14.108 -18.403   5.196  1.00  0.00    +0.022 C 
ATOM     33  C   UNL     1      12.740 -17.721   5.205  1.00  0.00    +0.004 C 
ENDBRANCH  24  26
ENDBRANCH  16  19
ENDBRANCH  12  15
ENDBRANCH   4  10
TORSDOF 6
ENDMDL
MODEL 8
REMARK VINA RESULT:    -8.198      4.389      9.177
REMARK INTER + INTRA:         -11.970
REMARK INTER:                 -11.062
REMARK INTRA:                  -0.908
REMARK UNBOUND:                -0.896
REMARK SMILES CCOC(=O)NC(=O)c1ccsc1NC(=O)c1ccc(C(=O)N2CCCCC2)c(F)c1
REMARK SMILES IDX 4 1 5 2 6 3 7 4 8 5 3 7 2 8 1 9 9 10 10 11 13 12 11 13 12 14
REMARK SMILES IDX 14 15 15 16 16 17 17 19 18 20 31 21 19 22 29 23 20 24 30 25
REMARK SMILES IDX 21 26 22 27 23 28 24 29 28 30 25 31 27 32 26 33
REMARK H PARENT 6 6 14 18
ROOT
ATOM      1  C   UNL     1      24.735 -21.940  -1.192  1.00  0.00    +0.414 C 
ATOM      2  O   UNL     1      24.504 -22.629  -0.213  1.00  0.00    -0.224 OA
ATOM      3  N   UNL     1      24.003 -21.847  -2.339  1.00  0.00    -0.257 N 
ATOM      4  C   UNL     1      22.776 -22.432  -2.543  1.00  0.00    +0.263 C 
ATOM      5  O   UNL     1      22.171 -23.101  -1.710  1.00  0.00    -0.269 OA
ATOM      6  H   UNL     1      24.391 -21.220  -3.019  1.00  0.00    +0.176 HD
ENDROOT
BRANCH   1   7
ATOM      7  O   UNL     1      25.819 -21.129  -1.324  1.00  0.00    -0.450 OA
BRANCH   7   8
ATOM      8  C   UNL     1      26.217 -20.417  -0.141  1.00  0.00    +0.231 C 
ATOM      9  C   UNL     1      25.812 -18.958  -0.247  1.00  0.00    +0.049 C 
ENDBRANCH   7   8
ENDBRANCH   1   7
BRANCH   4  10
ATOM     10  C   UNL     1      22.183 -22.180  -3.869  1.00  0.00    +0.075 A 
ATOM     11  C   UNL     1      22.752 -22.461  -5.165  1.00  0.00    +0.028 A 
ATOM     12  C   UNL     1      20.916 -21.621  -4.011  1.00  0.00    +0.108 A 
ATOM     13  C   UNL     1      21.919 -22.103  -6.200  1.00  0.00    +0.068 A 
ATOM     14  S   UNL     1      20.457 -21.441  -5.635  1.00  0.00    -0.126 S 
BRANCH  12  15
ATOM     15  N   UNL     1      20.078 -21.246  -2.970  1.00  0.00    -0.313 N 
ATOM     16  C   UNL     1      18.979 -21.926  -2.485  1.00  0.00    +0.256 C 
ATOM     17  O   UNL     1      18.490 -22.963  -2.916  1.00  0.00    -0.269 OA
ATOM     18  H   UNL     1      20.308 -20.338  -2.565  1.00  0.00    +0.171 HD
BRANCH  16  19
ATOM     19  C   UNL     1      18.306 -21.284  -1.315  1.00  0.00    +0.043 A 
ATOM     20  C   UNL     1      18.929 -21.161  -0.063  1.00  0.00    +0.015 A 
ATOM     21  C   UNL     1      16.997 -20.816  -1.487  1.00  0.00    +0.054 A 
ATOM     22  C   UNL     1      18.248 -20.562   1.002  1.00  0.00    +0.018 A 
ATOM     23  C   UNL     1      16.326 -20.221  -0.423  1.00  0.00    +0.136 A 
ATOM     24  C   UNL     1      16.936 -20.108   0.824  1.00  0.00    +0.075 A 
ATOM     25  F   UNL     1      15.085 -19.757  -0.627  1.00  0.00    -0.206 F 
BRANCH  24  26
ATOM     26  C   UNL     1      16.253 -19.456   1.956  1.00  0.00    +0.256 C 
ATOM     27  O   UNL     1      16.010 -18.256   1.845  1.00  0.00    -0.269 OA
ATOM     28  N   UNL     1      15.946 -20.198   3.095  1.00  0.00    -0.339 N 
ATOM     29  C   UNL     1      15.179 -19.540   4.149  1.00  0.00    +0.120 C 
ATOM     30  C   UNL     1      16.443 -21.551   3.370  1.00  0.00    +0.120 C 
ATOM     31  C   UNL     1      14.440 -20.543   5.026  1.00  0.00    +0.022 C 
ATOM     32  C   UNL     1      16.666 -21.777   4.861  1.00  0.00    +0.022 C 
ATOM     33  C   UNL     1      15.391 -21.549   5.674  1.00  0.00    +0.004 C 
ENDBRANCH  24  26
ENDBRANCH  16  19
ENDBRANCH  12  15
ENDBRANCH   4  10
TORSDOF 6
ENDMDL
MODEL 9
REMARK VINA RESULT:    -8.109      3.138      5.337
REMARK INTER + INTRA:         -11.850
REMARK INTER:                 -10.697
REMARK INTRA:                  -1.153
REMARK UNBOUND:                -0.896
REMARK SMILES CCOC(=O)NC(=O)c1ccsc1NC(=O)c1ccc(C(=O)N2CCCCC2)c(F)c1
REMARK SMILES IDX 4 1 5 2 6 3 7 4 8 5 3 7 2 8 1 9 9 10 10 11 13 12 11 13 12 14
REMARK SMILES IDX 14 15 15 16 16 17 17 19 18 20 31 21 19 22 29 23 20 24 30 25
REMARK SMILES IDX 21 26 22 27 23 28 24 29 28 30 25 31 27 32 26 33
REMARK H PARENT 6 6 14 18
ROOT
ATOM      1  C   UNL     1      14.713 -17.463   2.107  1.00  0.00    +0.414 C 
ATOM      2  O   UNL     1      15.264 -17.190   1.055  1.00  0.00    -0.224 OA
ATOM      3  N   UNL     1      15.007 -18.484   2.963  1.00  0.00    -0.257 N 
ATOM      4  C   UNL     1      16.086 -19.327   2.847  1.00  0.00    +0.263 C 
ATOM      5  O   UNL     1      16.938 -19.259   1.965  1.00  0.00    -0.269 OA
ATOM      6  H   UNL     1      14.411 -18.523   3.769  1.00  0.00    +0.176 HD
ENDROOT
BRANCH   1   7
ATOM      7  O   UNL     1      13.653 -16.782   2.621  1.00  0.00    -0.450 OA
BRANCH   7   8
ATOM      8  C   UNL     1      13.360 -17.030   4.006  1.00  0.00    +0.231 C 
ATOM      9  C   UNL     1      11.896 -16.754   4.289  1.00  0.00    +0.049 C 
ENDBRANCH   7   8
ENDBRANCH   1   7
BRANCH   4  10
ATOM     10  C   UNL     1      16.188 -20.351   3.902  1.00  0.00    +0.075 A 
ATOM     11  C   UNL     1      15.539 -20.367   5.190  1.00  0.00    +0.028 A 
ATOM     12  C   UNL     1      16.963 -21.496   3.740  1.00  0.00    +0.108 A 
ATOM     13  C   UNL     1      15.852 -21.486   5.929  1.00  0.00    +0.068 A 
ATOM     14  S   UNL     1      16.908 -22.523   5.089  1.00  0.00    -0.126 S 
BRANCH  12  15
ATOM     15  N   UNL     1      17.708 -21.813   2.612  1.00  0.00    -0.313 N 
ATOM     16  C   UNL     1      17.383 -22.704   1.609  1.00  0.00    +0.256 C 
ATOM     17  O   UNL     1      16.402 -23.435   1.546  1.00  0.00    -0.269 OA
ATOM     18  H   UNL     1      18.613 -21.343   2.573  1.00  0.00    +0.171 HD
BRANCH  16  19
ATOM     19  C   UNL     1      18.376 -22.789   0.496  1.00  0.00    +0.043 A 
ATOM     20  C   UNL     1      18.666 -21.699  -0.339  1.00  0.00    +0.015 A 
ATOM     21  C   UNL     1      19.012 -24.018   0.276  1.00  0.00    +0.054 A 
ATOM     22  C   UNL     1      19.596 -21.838  -1.375  1.00  0.00    +0.018 A 
ATOM     23  C   UNL     1      19.936 -24.149  -0.756  1.00  0.00    +0.136 A 
ATOM     24  C   UNL     1      20.218 -23.073  -1.593  1.00  0.00    +0.075 A 
ATOM     25  F   UNL     1      20.549 -25.330  -0.921  1.00  0.00    -0.206 F 
BRANCH  24  26
ATOM     26  C   UNL     1      21.213 -23.183  -2.675  1.00  0.00    +0.256 C 
ATOM     27  O   UNL     1      20.793 -23.474  -3.793  1.00  0.00    -0.269 OA
ATOM     28  N   UNL     1      22.564 -22.990  -2.390  1.00  0.00    -0.339 N 
ATOM     29  C   UNL     1      23.504 -23.006  -3.508  1.00  0.00    +0.120 C 
ATOM     30  C   UNL     1      23.128 -22.899  -1.039  1.00  0.00    +0.120 C 
ATOM     31  C   UNL     1      24.785 -22.250  -3.184  1.00  0.00    +0.022 C 
ATOM     32  C   UNL     1      24.530 -23.494  -0.972  1.00  0.00    +0.022 C 
ATOM     33  C   UNL     1      25.490 -22.816  -1.950  1.00  0.00    +0.004 C 
ENDBRANCH  24  26
ENDBRANCH  16  19
ENDBRANCH  12  15
ENDBRANCH   4  10
TORSDOF 6
ENDMDL
