MODEL 1
REMARK VINA RESULT:    -9.015      0.000      0.000
REMARK INTER + INTRA:         -13.483
REMARK INTER:                 -12.177
REMARK INTRA:                  -1.306
REMARK UNBOUND:                -1.306
REMARK SMILES O=C(NC(=O)c1ccsc1NC(=O)c1nc2ccccc2s1)OCC1CCCC1
REMARK SMILES IDX 1 1 2 2 3 3 4 4 5 5 23 7 24 8 25 9 26 10 29 11 27 12 28 13
REMARK SMILES IDX 6 14 7 15 10 16 8 17 9 18 11 19 12 20 13 21 14 23 15 24
REMARK SMILES IDX 22 25 16 26 21 27 17 28 20 29 18 30 19 31
REMARK H PARENT 3 6 11 22
ROOT
ATOM      1  O   UNL     1      16.762 -20.792   6.889  1.00  0.00    -0.224 OA
ATOM      2  C   UNL     1      15.962 -20.953   5.984  1.00  0.00    +0.414 C 
ATOM      3  N   UNL     1      15.090 -20.047   5.460  1.00  0.00    -0.257 N 
ATOM      4  C   UNL     1      15.059 -18.705   5.766  1.00  0.00    +0.263 C 
ATOM      5  O   UNL     1      15.821 -18.152   6.552  1.00  0.00    -0.269 OA
ATOM      6  H   UNL     1      14.521 -20.413   4.719  1.00  0.00    +0.176 HD
ENDROOT
BRANCH   2   7
ATOM      7  O   UNL     1      15.775 -22.134   5.332  1.00  0.00    -0.449 OA
BRANCH   7   8
ATOM      8  C   UNL     1      16.499 -22.249   4.098  1.00  0.00    +0.238 C 
BRANCH   8   9
ATOM      9  C   UNL     1      17.572 -23.319   4.266  1.00  0.00    +0.027 C 
ATOM     10  C   UNL     1      18.933 -22.760   4.679  1.00  0.00    +0.007 C 
ATOM     11  C   UNL     1      17.899 -24.051   2.969  1.00  0.00    +0.007 C 
ATOM     12  C   UNL     1      19.918 -23.869   4.325  1.00  0.00    +0.000 C 
ATOM     13  C   UNL     1      19.234 -24.726   3.259  1.00  0.00    +0.000 C 
ENDBRANCH   8   9
ENDBRANCH   7   8
ENDBRANCH   2   7
BRANCH   4  14
ATOM     14  C   UNL     1      14.034 -17.933   5.042  1.00  0.00    +0.075 A 
ATOM     15  C   UNL     1      12.961 -17.148   5.605  1.00  0.00    +0.028 A 
ATOM     16  C   UNL     1      14.001 -17.862   3.652  1.00  0.00    +0.108 A 
ATOM     17  C   UNL     1      12.172 -16.556   4.645  1.00  0.00    +0.068 A 
ATOM     18  S   UNL     1      12.710 -16.923   3.074  1.00  0.00    -0.126 S 
BRANCH  16  19
ATOM     19  N   UNL     1      14.893 -18.469   2.782  1.00  0.00    -0.311 N 
ATOM     20  C   UNL     1      15.462 -17.954   1.625  1.00  0.00    +0.285 C 
ATOM     21  O   UNL     1      15.249 -16.840   1.156  1.00  0.00    -0.266 OA
ATOM     22  H   UNL     1      15.189 -19.420   3.028  1.00  0.00    +0.171 HD
BRANCH  20  23
ATOM     23  C   UNL     1      16.370 -18.922   1.002  1.00  0.00    +0.182 A 
ATOM     24  N   UNL     1      17.302 -19.557   1.686  1.00  0.00    -0.231 NA
ATOM     25  S   UNL     1      16.273 -19.291  -0.664  1.00  0.00    -0.109 S 
ATOM     26  C   UNL     1      18.002 -20.399   0.840  1.00  0.00    +0.082 A 
ATOM     27  C   UNL     1      17.584 -20.394  -0.493  1.00  0.00    +0.055 A 
ATOM     28  C   UNL     1      19.073 -21.238   1.212  1.00  0.00    +0.030 A 
ATOM     29  C   UNL     1      18.199 -21.200  -1.466  1.00  0.00    +0.021 A 
ATOM     30  C   UNL     1      19.693 -22.042   0.250  1.00  0.00    +0.002 A 
ATOM     31  C   UNL     1      19.259 -22.021  -1.071  1.00  0.00    +0.002 A 
ENDBRANCH  20  23
ENDBRANCH  16  19
ENDBRANCH   4  14
TORSDOF 6
ENDMDL
MODEL 2
REMARK VINA RESULT:    -9.000      1.283      1.978
REMARK INTER + INTRA:         -13.463
REMARK INTER:                 -12.504
REMARK INTRA:                  -0.959
REMARK UNBOUND:                -1.306
REMARK SMILES O=C(NC(=O)c1ccsc1NC(=O)c1nc2ccccc2s1)OCC1CCCC1
REMARK SMILES IDX 1 1 2 2 3 3 4 4 5 5 23 7 24 8 25 9 26 10 29 11 27 12 28 13
REMARK SMILES IDX 6 14 7 15 10 16 8 17 9 18 11 19 12 20 13 21 14 23 15 24
REMARK SMILES IDX 22 25 16 26 21 27 17 28 20 29 18 30 19 31
REMARK H PARENT 3 6 11 22
ROOT
ATOM      1  O   UNL     1      17.143 -21.456   6.064  1.00  0.00    -0.224 OA
ATOM      2  C   UNL     1      16.441 -21.367   5.072  1.00  0.00    +0.414 C 
ATOM      3  N   UNL     1      15.558 -20.379   4.751  1.00  0.00    -0.257 N 
ATOM      4  C   UNL     1      15.406 -19.196   5.437  1.00  0.00    +0.263 C 
ATOM      5  O   UNL     1      16.053 -18.878   6.430  1.00  0.00    -0.269 OA
ATOM      6  H   UNL     1      15.085 -20.526   3.878  1.00  0.00    +0.176 HD
ENDROOT
BRANCH   2   7
ATOM      7  O   UNL     1      16.397 -22.300   4.082  1.00  0.00    -0.449 OA
BRANCH   7   8
ATOM      8  C   UNL     1      17.588 -23.093   3.964  1.00  0.00    +0.238 C 
BRANCH   8   9
ATOM      9  C   UNL     1      17.699 -23.586   2.525  1.00  0.00    +0.027 C 
ATOM     10  C   UNL     1      16.420 -23.389   1.712  1.00  0.00    +0.007 C 
ATOM     11  C   UNL     1      17.926 -25.089   2.420  1.00  0.00    +0.007 C 
ATOM     12  C   UNL     1      16.575 -24.344   0.532  1.00  0.00    +0.000 C 
ATOM     13  C   UNL     1      17.579 -25.410   0.971  1.00  0.00    +0.000 C 
ENDBRANCH   8   9
ENDBRANCH   7   8
ENDBRANCH   2   7
BRANCH   4  14
ATOM     14  C   UNL     1      14.398 -18.281   4.871  1.00  0.00    +0.075 A 
ATOM     15  C   UNL     1      13.402 -17.517   5.584  1.00  0.00    +0.028 A 
ATOM     16  C   UNL     1      14.307 -18.031   3.504  1.00  0.00    +0.108 A 
ATOM     17  C   UNL     1      12.608 -16.764   4.749  1.00  0.00    +0.068 A 
ATOM     18  S   UNL     1      13.051 -16.956   3.118  1.00  0.00    -0.126 S 
BRANCH  16  19
ATOM     19  N   UNL     1      15.120 -18.571   2.520  1.00  0.00    -0.311 N 
ATOM     20  C   UNL     1      15.604 -17.965   1.368  1.00  0.00    +0.285 C 
ATOM     21  O   UNL     1      15.371 -16.813   1.012  1.00  0.00    -0.266 OA
ATOM     22  H   UNL     1      15.419 -19.541   2.662  1.00  0.00    +0.171 HD
BRANCH  20  23
ATOM     23  C   UNL     1      16.446 -18.884   0.598  1.00  0.00    +0.182 A 
ATOM     24  N   UNL     1      16.413 -18.935  -0.720  1.00  0.00    -0.231 NA
ATOM     25  S   UNL     1      17.535 -19.953   1.367  1.00  0.00    -0.109 S 
ATOM     26  C   UNL     1      17.309 -19.891  -1.168  1.00  0.00    +0.082 A 
ATOM     27  C   UNL     1      18.022 -20.559  -0.169  1.00  0.00    +0.055 A 
ATOM     28  C   UNL     1      17.549 -20.229  -2.515  1.00  0.00    +0.030 A 
ATOM     29  C   UNL     1      18.967 -21.553  -0.472  1.00  0.00    +0.021 A 
ATOM     30  C   UNL     1      18.487 -21.219  -2.827  1.00  0.00    +0.002 A 
ATOM     31  C   UNL     1      19.186 -21.871  -1.817  1.00  0.00    +0.002 A 
ENDBRANCH  20  23
ENDBRANCH  16  19
ENDBRANCH   4  14
TORSDOF 6
ENDMDL
MODEL 3
REMARK VINA RESULT:    -8.723      1.903      4.439
REMARK INTER + INTRA:         -13.089
REMARK INTER:                 -11.720
REMARK INTRA:                  -1.369
REMARK UNBOUND:                -1.306
REMARK SMILES O=C(NC(=O)c1ccsc1NC(=O)c1nc2ccccc2s1)OCC1CCCC1
REMARK SMILES IDX 1 1 2 2 3 3 4 4 5 5 23 7 24 8 25 9 26 10 29 11 27 12 28 13
REMARK SMILES IDX 6 14 7 15 10 16 8 17 9 18 11 19 12 20 13 21 14 23 15 24
REMARK SMILES IDX 22 25 16 26 21 27 17 28 20 29 18 30 19 31
REMARK H PARENT 3 6 11 22
ROOT
ATOM      1  O   UNL     1      16.320 -17.758   0.045  1.00  0.00    -0.224 OA
ATOM      2  C   UNL     1      16.128 -18.613   0.892  1.00  0.00    +0.414 C 
ATOM      3  N   UNL     1      15.394 -18.515   2.036  1.00  0.00    -0.257 N 
ATOM      4  C   UNL     1      14.591 -17.449   2.376  1.00  0.00    +0.263 C 
ATOM      5  O   UNL     1      14.432 -16.448   1.686  1.00  0.00    -0.269 OA
ATOM      6  H   UNL     1      15.385 -19.354   2.585  1.00  0.00    +0.176 HD
ENDROOT
BRANCH   2   7
ATOM      7  O   UNL     1      16.666 -19.863   0.850  1.00  0.00    -0.449 OA
BRANCH   7   8
ATOM      8  C   UNL     1      17.147 -20.256  -0.444  1.00  0.00    +0.238 C 
BRANCH   8   9
ATOM      9  C   UNL     1      18.546 -20.838  -0.282  1.00  0.00    +0.027 C 
ATOM     10  C   UNL     1      18.689 -22.253  -0.843  1.00  0.00    +0.007 C 
ATOM     11  C   UNL     1      18.957 -21.021   1.174  1.00  0.00    +0.007 C 
ATOM     12  C   UNL     1      19.944 -22.800  -0.171  1.00  0.00    +0.000 C 
ATOM     13  C   UNL     1      20.143 -21.976   1.102  1.00  0.00    +0.000 C 
ENDBRANCH   8   9
ENDBRANCH   7   8
ENDBRANCH   2   7
BRANCH   4  14
ATOM     14  C   UNL     1      13.881 -17.599   3.659  1.00  0.00    +0.075 A 
ATOM     15  C   UNL     1      12.926 -16.691   4.249  1.00  0.00    +0.028 A 
ATOM     16  C   UNL     1      14.056 -18.710   4.480  1.00  0.00    +0.108 A 
ATOM     17  C   UNL     1      12.453 -17.130   5.464  1.00  0.00    +0.068 A 
ATOM     18  S   UNL     1      13.136 -18.624   5.903  1.00  0.00    -0.126 S 
BRANCH  16  19
ATOM     19  N   UNL     1      14.878 -19.796   4.219  1.00  0.00    -0.311 N 
ATOM     20  C   UNL     1      15.970 -20.250   4.946  1.00  0.00    +0.285 C 
ATOM     21  O   UNL     1      16.411 -19.739   5.971  1.00  0.00    -0.266 OA
ATOM     22  H   UNL     1      14.645 -20.350   3.388  1.00  0.00    +0.171 HD
BRANCH  20  23
ATOM     23  C   UNL     1      16.557 -21.445   4.333  1.00  0.00    +0.182 A 
ATOM     24  N   UNL     1      16.097 -21.961   3.210  1.00  0.00    -0.231 NA
ATOM     25  S   UNL     1      17.890 -22.248   5.042  1.00  0.00    -0.109 S 
ATOM     26  C   UNL     1      16.843 -23.079   2.876  1.00  0.00    +0.082 A 
ATOM     27  C   UNL     1      17.876 -23.398   3.761  1.00  0.00    +0.055 A 
ATOM     28  C   UNL     1      16.644 -23.893   1.742  1.00  0.00    +0.030 A 
ATOM     29  C   UNL     1      18.717 -24.502   3.550  1.00  0.00    +0.021 A 
ATOM     30  C   UNL     1      17.476 -24.997   1.525  1.00  0.00    +0.002 A 
ATOM     31  C   UNL     1      18.499 -25.295   2.419  1.00  0.00    +0.002 A 
ENDBRANCH  20  23
ENDBRANCH  16  19
ENDBRANCH   4  14
TORSDOF 6
ENDMDL
MODEL 4
REMARK VINA RESULT:    -8.606      2.364      4.717
REMARK INTER + INTRA:         -12.930
REMARK INTER:                 -11.525
REMARK INTRA:                  -1.405
REMARK UNBOUND:                -1.306
REMARK SMILES O=C(NC(=O)c1ccsc1NC(=O)c1nc2ccccc2s1)OCC1CCCC1
REMARK SMILES IDX 1 1 2 2 3 3 4 4 5 5 23 7 24 8 25 9 26 10 29 11 27 12 28 13
REMARK SMILES IDX 6 14 7 15 10 16 8 17 9 18 11 19 12 20 13 21 14 23 15 24
REMARK SMILES IDX 22 25 16 26 21 27 17 28 20 29 18 30 19 31
REMARK H PARENT 3 6 11 22
ROOT
ATOM      1  O   UNL     1      16.527 -18.574  -1.235  1.00  0.00    -0.224 OA
ATOM      2  C   UNL     1      15.904 -19.373  -0.558  1.00  0.00    +0.414 C 
ATOM      3  N   UNL     1      15.382 -19.193   0.689  1.00  0.00    -0.257 N 
ATOM      4  C   UNL     1      15.336 -17.995   1.365  1.00  0.00    +0.263 C 
ATOM      5  O   UNL     1      15.757 -16.930   0.927  1.00  0.00    -0.269 OA
ATOM      6  H   UNL     1      14.912 -20.001   1.051  1.00  0.00    +0.176 HD
ENDROOT
BRANCH   2   7
ATOM      7  O   UNL     1      15.635 -20.652  -0.940  1.00  0.00    -0.449 OA
BRANCH   7   8
ATOM      8  C   UNL     1      16.606 -21.218  -1.833  1.00  0.00    +0.238 C 
BRANCH   8   9
ATOM      9  C   UNL     1      16.893 -22.648  -1.390  1.00  0.00    +0.027 C 
ATOM     10  C   UNL     1      16.133 -23.061  -0.130  1.00  0.00    +0.007 C 
ATOM     11  C   UNL     1      18.345 -22.872  -0.985  1.00  0.00    +0.007 C 
ATOM     12  C   UNL     1      16.898 -24.274   0.390  1.00  0.00    +0.000 C 
ATOM     13  C   UNL     1      18.307 -24.177  -0.198  1.00  0.00    +0.000 C 
ENDBRANCH   8   9
ENDBRANCH   7   8
ENDBRANCH   2   7
BRANCH   4  14
ATOM     14  C   UNL     1      14.696 -18.063   2.691  1.00  0.00    +0.075 A 
ATOM     15  C   UNL     1      13.582 -17.282   3.173  1.00  0.00    +0.028 A 
ATOM     16  C   UNL     1      15.117 -18.954   3.675  1.00  0.00    +0.108 A 
ATOM     17  C   UNL     1      13.234 -17.590   4.469  1.00  0.00    +0.068 A 
ATOM     18  S   UNL     1      14.225 -18.813   5.112  1.00  0.00    -0.126 S 
BRANCH  16  19
ATOM     19  N   UNL     1      16.145 -19.877   3.554  1.00  0.00    -0.311 N 
ATOM     20  C   UNL     1      16.131 -21.233   3.853  1.00  0.00    +0.285 C 
ATOM     21  O   UNL     1      15.175 -21.858   4.302  1.00  0.00    -0.266 OA
ATOM     22  H   UNL     1      17.031 -19.521   3.181  1.00  0.00    +0.171 HD
BRANCH  20  23
ATOM     23  C   UNL     1      17.428 -21.853   3.566  1.00  0.00    +0.182 A 
ATOM     24  N   UNL     1      18.231 -21.407   2.620  1.00  0.00    -0.231 NA
ATOM     25  S   UNL     1      17.984 -23.206   4.452  1.00  0.00    -0.109 S 
ATOM     26  C   UNL     1      19.375 -22.186   2.579  1.00  0.00    +0.082 A 
ATOM     27  C   UNL     1      19.425 -23.226   3.510  1.00  0.00    +0.055 A 
ATOM     28  C   UNL     1      20.459 -22.012   1.695  1.00  0.00    +0.030 A 
ATOM     29  C   UNL     1      20.524 -24.098   3.588  1.00  0.00    +0.021 A 
ATOM     30  C   UNL     1      21.557 -22.876   1.764  1.00  0.00    +0.002 A 
ATOM     31  C   UNL     1      21.586 -23.905   2.699  1.00  0.00    +0.002 A 
ENDBRANCH  20  23
ENDBRANCH  16  19
ENDBRANCH   4  14
TORSDOF 6
ENDMDL
MODEL 5
REMARK VINA RESULT:    -8.485      3.868      8.283
REMARK INTER + INTRA:         -12.768
REMARK INTER:                 -11.835
REMARK INTRA:                  -0.933
REMARK UNBOUND:                -1.306
REMARK SMILES O=C(NC(=O)c1ccsc1NC(=O)c1nc2ccccc2s1)OCC1CCCC1
REMARK SMILES IDX 1 1 2 2 3 3 4 4 5 5 23 7 24 8 25 9 26 10 29 11 27 12 28 13
REMARK SMILES IDX 6 14 7 15 10 16 8 17 9 18 11 19 12 20 13 21 14 23 15 24
REMARK SMILES IDX 22 25 16 26 21 27 17 28 20 29 18 30 19 31
REMARK H PARENT 3 6 11 22
ROOT
ATOM      1  O   UNL     1      17.443 -20.718  -2.848  1.00  0.00    -0.224 OA
ATOM      2  C   UNL     1      18.428 -21.297  -2.425  1.00  0.00    +0.414 C 
ATOM      3  N   UNL     1      18.513 -22.152  -1.367  1.00  0.00    -0.257 N 
ATOM      4  C   UNL     1      17.442 -22.645  -0.656  1.00  0.00    +0.263 C 
ATOM      5  O   UNL     1      16.268 -22.379  -0.891  1.00  0.00    -0.269 OA
ATOM      6  H   UNL     1      19.438 -22.503  -1.203  1.00  0.00    +0.176 HD
ENDROOT
BRANCH   2   7
ATOM      7  O   UNL     1      19.678 -21.157  -2.947  1.00  0.00    -0.449 OA
BRANCH   7   8
ATOM      8  C   UNL     1      20.044 -22.179  -3.887  1.00  0.00    +0.238 C 
BRANCH   8   9
ATOM      9  C   UNL     1      20.418 -21.510  -5.205  1.00  0.00    +0.027 C 
ATOM     10  C   UNL     1      20.345 -22.448  -6.409  1.00  0.00    +0.007 C 
ATOM     11  C   UNL     1      21.866 -21.034  -5.248  1.00  0.00    +0.007 C 
ATOM     12  C   UNL     1      21.187 -21.756  -7.476  1.00  0.00    +0.000 C 
ATOM     13  C   UNL     1      22.132 -20.813  -6.732  1.00  0.00    +0.000 C 
ENDBRANCH   8   9
ENDBRANCH   7   8
ENDBRANCH   2   7
BRANCH   4  14
ATOM     14  C   UNL     1      17.801 -23.575   0.430  1.00  0.00    +0.075 A 
ATOM     15  C   UNL     1      18.532 -24.815   0.323  1.00  0.00    +0.028 A 
ATOM     16  C   UNL     1      17.465 -23.330   1.759  1.00  0.00    +0.108 A 
ATOM     17  C   UNL     1      18.690 -25.448   1.535  1.00  0.00    +0.068 A 
ATOM     18  S   UNL     1      17.980 -24.565   2.803  1.00  0.00    -0.126 S 
BRANCH  16  19
ATOM     19  N   UNL     1      16.785 -22.221   2.237  1.00  0.00    -0.311 N 
ATOM     20  C   UNL     1      17.203 -20.897   2.272  1.00  0.00    +0.285 C 
ATOM     21  O   UNL     1      18.288 -20.478   1.882  1.00  0.00    -0.266 OA
ATOM     22  H   UNL     1      15.842 -22.391   2.602  1.00  0.00    +0.171 HD
BRANCH  20  23
ATOM     23  C   UNL     1      16.172 -20.029   2.848  1.00  0.00    +0.182 A 
ATOM     24  N   UNL     1      15.653 -20.244   4.041  1.00  0.00    -0.231 NA
ATOM     25  S   UNL     1      15.575 -18.669   2.000  1.00  0.00    -0.109 S 
ATOM     26  C   UNL     1      14.708 -19.270   4.317  1.00  0.00    +0.082 A 
ATOM     27  C   UNL     1      14.523 -18.314   3.316  1.00  0.00    +0.055 A 
ATOM     28  C   UNL     1      13.944 -19.175   5.498  1.00  0.00    +0.030 A 
ATOM     29  C   UNL     1      13.600 -17.264   3.456  1.00  0.00    +0.021 A 
ATOM     30  C   UNL     1      13.021 -18.134   5.645  1.00  0.00    +0.002 A 
ATOM     31  C   UNL     1      12.853 -17.192   4.636  1.00  0.00    +0.002 A 
ENDBRANCH  20  23
ENDBRANCH  16  19
ENDBRANCH   4  14
TORSDOF 6
ENDMDL
MODEL 6
REMARK VINA RESULT:    -8.477      3.433      8.161
REMARK INTER + INTRA:         -12.757
REMARK INTER:                 -11.753
REMARK INTRA:                  -1.004
REMARK UNBOUND:                -1.306
REMARK SMILES O=C(NC(=O)c1ccsc1NC(=O)c1nc2ccccc2s1)OCC1CCCC1
REMARK SMILES IDX 1 1 2 2 3 3 4 4 5 5 23 7 24 8 25 9 26 10 29 11 27 12 28 13
REMARK SMILES IDX 6 14 7 15 10 16 8 17 9 18 11 19 12 20 13 21 14 23 15 24
REMARK SMILES IDX 22 25 16 26 21 27 17 28 20 29 18 30 19 31
REMARK H PARENT 3 6 11 22
ROOT
ATOM      1  O   UNL     1      18.244 -19.206  -1.775  1.00  0.00    -0.224 OA
ATOM      2  C   UNL     1      18.383 -20.384  -2.056  1.00  0.00    +0.414 C 
ATOM      3  N   UNL     1      18.374 -21.457  -1.216  1.00  0.00    -0.257 N 
ATOM      4  C   UNL     1      18.050 -21.417   0.121  1.00  0.00    +0.263 C 
ATOM      5  O   UNL     1      17.722 -20.403   0.728  1.00  0.00    -0.269 OA
ATOM      6  H   UNL     1      18.516 -22.336  -1.679  1.00  0.00    +0.176 HD
ENDROOT
BRANCH   2   7
ATOM      7  O   UNL     1      18.610 -20.845  -3.317  1.00  0.00    -0.449 OA
BRANCH   7   8
ATOM      8  C   UNL     1      19.398 -22.044  -3.375  1.00  0.00    +0.238 C 
BRANCH   8   9
ATOM      9  C   UNL     1      20.295 -21.972  -4.605  1.00  0.00    +0.027 C 
ATOM     10  C   UNL     1      19.864 -20.908  -5.614  1.00  0.00    +0.007 C 
ATOM     11  C   UNL     1      20.272 -23.246  -5.442  1.00  0.00    +0.007 C 
ATOM     12  C   UNL     1      20.553 -21.320  -6.912  1.00  0.00    +0.000 C 
ATOM     13  C   UNL     1      20.857 -22.813  -6.781  1.00  0.00    +0.000 C 
ENDBRANCH   8   9
ENDBRANCH   7   8
ENDBRANCH   2   7
BRANCH   4  14
ATOM     14  C   UNL     1      18.093 -22.722   0.804  1.00  0.00    +0.075 A 
ATOM     15  C   UNL     1      18.807 -23.908   0.394  1.00  0.00    +0.028 A 
ATOM     16  C   UNL     1      17.422 -22.957   2.001  1.00  0.00    +0.108 A 
ATOM     17  C   UNL     1      18.629 -24.964   1.258  1.00  0.00    +0.068 A 
ATOM     18  S   UNL     1      17.623 -24.546   2.563  1.00  0.00    -0.126 S 
BRANCH  16  19
ATOM     19  N   UNL     1      16.657 -22.037   2.702  1.00  0.00    -0.311 N 
ATOM     20  C   UNL     1      16.847 -21.556   3.991  1.00  0.00    +0.285 C 
ATOM     21  O   UNL     1      17.748 -21.888   4.754  1.00  0.00    -0.266 OA
ATOM     22  H   UNL     1      15.852 -21.645   2.203  1.00  0.00    +0.171 HD
BRANCH  20  23
ATOM     23  C   UNL     1      15.815 -20.579   4.351  1.00  0.00    +0.182 A 
ATOM     24  N   UNL     1      15.520 -19.549   3.582  1.00  0.00    -0.231 NA
ATOM     25  S   UNL     1      14.922 -20.719   5.802  1.00  0.00    -0.109 S 
ATOM     26  C   UNL     1      14.515 -18.803   4.176  1.00  0.00    +0.082 A 
ATOM     27  C   UNL     1      14.054 -19.287   5.402  1.00  0.00    +0.055 A 
ATOM     28  C   UNL     1      13.940 -17.628   3.649  1.00  0.00    +0.030 A 
ATOM     29  C   UNL     1      13.037 -18.636   6.120  1.00  0.00    +0.021 A 
ATOM     30  C   UNL     1      12.928 -16.973   4.357  1.00  0.00    +0.002 A 
ATOM     31  C   UNL     1      12.483 -17.472   5.577  1.00  0.00    +0.002 A 
ENDBRANCH  20  23
ENDBRANCH  16  19
ENDBRANCH   4  14
TORSDOF 6
ENDMDL
MODEL 7
REMARK VINA RESULT:    -8.102      3.102      7.462
REMARK INTER + INTRA:         -12.250
REMARK INTER:                 -10.974
REMARK INTRA:                  -1.277
REMARK UNBOUND:                -1.306
REMARK SMILES O=C(NC(=O)c1ccsc1NC(=O)c1nc2ccccc2s1)OCC1CCCC1
REMARK SMILES IDX 1 1 2 2 3 3 4 4 5 5 23 7 24 8 25 9 26 10 29 11 27 12 28 13
REMARK SMILES IDX 6 14 7 15 10 16 8 17 9 18 11 19 12 20 13 21 14 23 15 24
REMARK SMILES IDX 22 25 16 26 21 27 17 28 20 29 18 30 19 31
REMARK H PARENT 3 6 11 22
ROOT
ATOM      1  O   UNL     1      14.730 -24.623  -0.223  1.00  0.00    -0.224 OA
ATOM      2  C   UNL     1      15.461 -23.695  -0.524  1.00  0.00    +0.414 C 
ATOM      3  N   UNL     1      16.731 -23.450  -0.093  1.00  0.00    -0.257 N 
ATOM      4  C   UNL     1      17.492 -24.309   0.665  1.00  0.00    +0.263 C 
ATOM      5  O   UNL     1      17.123 -25.414   1.048  1.00  0.00    -0.269 OA
ATOM      6  H   UNL     1      17.134 -22.615  -0.476  1.00  0.00    +0.176 HD
ENDROOT
BRANCH   2   7
ATOM      7  O   UNL     1      15.103 -22.682  -1.360  1.00  0.00    -0.449 OA
BRANCH   7   8
ATOM      8  C   UNL     1      16.155 -22.230  -2.226  1.00  0.00    +0.238 C 
BRANCH   8   9
ATOM      9  C   UNL     1      16.299 -20.722  -2.064  1.00  0.00    +0.027 C 
ATOM     10  C   UNL     1      17.748 -20.258  -1.923  1.00  0.00    +0.007 C 
ATOM     11  C   UNL     1      15.660 -20.190  -0.786  1.00  0.00    +0.007 C 
ATOM     12  C   UNL     1      17.640 -18.866  -1.308  1.00  0.00    +0.000 C 
ATOM     13  C   UNL     1      16.277 -18.807  -0.617  1.00  0.00    +0.000 C 
ENDBRANCH   8   9
ENDBRANCH   7   8
ENDBRANCH   2   7
BRANCH   4  14
ATOM     14  C   UNL     1      18.846 -23.817   0.979  1.00  0.00    +0.075 A 
ATOM     15  C   UNL     1      20.106 -24.359   0.530  1.00  0.00    +0.028 A 
ATOM     16  C   UNL     1      19.062 -22.699   1.779  1.00  0.00    +0.108 A 
ATOM     17  C   UNL     1      21.190 -23.662   1.015  1.00  0.00    +0.068 A 
ATOM     18  S   UNL     1      20.712 -22.359   1.997  1.00  0.00    -0.126 S 
BRANCH  16  19
ATOM     19  N   UNL     1      18.083 -21.911   2.363  1.00  0.00    -0.311 N 
ATOM     20  C   UNL     1      17.488 -22.050   3.610  1.00  0.00    +0.285 C 
ATOM     21  O   UNL     1      17.732 -22.934   4.426  1.00  0.00    -0.266 OA
ATOM     22  H   UNL     1      17.760 -21.109   1.812  1.00  0.00    +0.171 HD
BRANCH  20  23
ATOM     23  C   UNL     1      16.503 -20.992   3.850  1.00  0.00    +0.182 A 
ATOM     24  N   UNL     1      16.174 -20.110   2.926  1.00  0.00    -0.231 NA
ATOM     25  S   UNL     1      15.710 -20.837   5.357  1.00  0.00    -0.109 S 
ATOM     26  C   UNL     1      15.227 -19.238   3.436  1.00  0.00    +0.082 A 
ATOM     27  C   UNL     1      14.843 -19.476   4.758  1.00  0.00    +0.055 A 
ATOM     28  C   UNL     1      14.639 -18.162   2.741  1.00  0.00    +0.030 A 
ATOM     29  C   UNL     1      13.890 -18.674   5.408  1.00  0.00    +0.021 A 
ATOM     30  C   UNL     1      13.690 -17.357   3.380  1.00  0.00    +0.002 A 
ATOM     31  C   UNL     1      13.322 -17.612   4.697  1.00  0.00    +0.002 A 
ENDBRANCH  20  23
ENDBRANCH  16  19
ENDBRANCH   4  14
TORSDOF 6
ENDMDL
MODEL 8
REMARK VINA RESULT:    -8.012      4.168      7.391
REMARK INTER + INTRA:         -12.129
REMARK INTER:                 -11.138
REMARK INTRA:                  -0.991
REMARK UNBOUND:                -1.306
REMARK SMILES O=C(NC(=O)c1ccsc1NC(=O)c1nc2ccccc2s1)OCC1CCCC1
REMARK SMILES IDX 1 1 2 2 3 3 4 4 5 5 23 7 24 8 25 9 26 10 29 11 27 12 28 13
REMARK SMILES IDX 6 14 7 15 10 16 8 17 9 18 11 19 12 20 13 21 14 23 15 24
REMARK SMILES IDX 22 25 16 26 21 27 17 28 20 29 18 30 19 31
REMARK H PARENT 3 6 11 22
ROOT
ATOM      1  O   UNL     1      16.854 -18.119  -0.117  1.00  0.00    -0.224 OA
ATOM      2  C   UNL     1      16.478 -18.872   0.765  1.00  0.00    +0.414 C 
ATOM      3  N   UNL     1      16.743 -20.202   0.906  1.00  0.00    -0.257 N 
ATOM      4  C   UNL     1      17.631 -20.921   0.138  1.00  0.00    +0.263 C 
ATOM      5  O   UNL     1      18.303 -20.451  -0.774  1.00  0.00    -0.269 OA
ATOM      6  H   UNL     1      16.316 -20.616   1.713  1.00  0.00    +0.176 HD
ENDROOT
BRANCH   2   7
ATOM      7  O   UNL     1      15.665 -18.499   1.791  1.00  0.00    -0.449 OA
BRANCH   7   8
ATOM      8  C   UNL     1      15.780 -19.320   2.964  1.00  0.00    +0.238 C 
BRANCH   8   9
ATOM      9  C   UNL     1      14.603 -19.014   3.883  1.00  0.00    +0.027 C 
ATOM     10  C   UNL     1      13.960 -17.652   3.621  1.00  0.00    +0.007 C 
ATOM     11  C   UNL     1      14.996 -18.913   5.352  1.00  0.00    +0.007 C 
ATOM     12  C   UNL     1      13.177 -17.354   4.896  1.00  0.00    +0.000 C 
ATOM     13  C   UNL     1      13.814 -18.201   5.998  1.00  0.00    +0.000 C 
ENDBRANCH   8   9
ENDBRANCH   7   8
ENDBRANCH   2   7
BRANCH   4  14
ATOM     14  C   UNL     1      17.755 -22.342   0.510  1.00  0.00    +0.075 A 
ATOM     15  C   UNL     1      17.177 -23.007   1.653  1.00  0.00    +0.028 A 
ATOM     16  C   UNL     1      18.475 -23.251  -0.261  1.00  0.00    +0.108 A 
ATOM     17  C   UNL     1      17.495 -24.345   1.710  1.00  0.00    +0.068 A 
ATOM     18  S   UNL     1      18.473 -24.815   0.400  1.00  0.00    -0.126 S 
BRANCH  16  19
ATOM     19  N   UNL     1      19.141 -22.971  -1.443  1.00  0.00    -0.311 N 
ATOM     20  C   UNL     1      20.509 -22.897  -1.670  1.00  0.00    +0.285 C 
ATOM     21  O   UNL     1      21.385 -23.061  -0.827  1.00  0.00    -0.266 OA
ATOM     22  H   UNL     1      18.552 -22.810  -2.267  1.00  0.00    +0.171 HD
BRANCH  20  23
ATOM     23  C   UNL     1      20.799 -22.588  -3.073  1.00  0.00    +0.182 A 
ATOM     24  N   UNL     1      20.153 -23.160  -4.071  1.00  0.00    -0.231 NA
ATOM     25  S   UNL     1      22.003 -21.454  -3.506  1.00  0.00    -0.109 S 
ATOM     26  C   UNL     1      20.639 -22.677  -5.274  1.00  0.00    +0.082 A 
ATOM     27  C   UNL     1      21.660 -21.729  -5.171  1.00  0.00    +0.055 A 
ATOM     28  C   UNL     1      20.193 -23.058  -6.556  1.00  0.00    +0.030 A 
ATOM     29  C   UNL     1      22.250 -21.149  -6.306  1.00  0.00    +0.021 A 
ATOM     30  C   UNL     1      20.775 -22.487  -7.692  1.00  0.00    +0.002 A 
ATOM     31  C   UNL     1      21.790 -21.544  -7.566  1.00  0.00    +0.002 A 
ENDBRANCH  20  23
ENDBRANCH  16  19
ENDBRANCH   4  14
TORSDOF 6
ENDMDL
MODEL 9
REMARK VINA RESULT:    -7.870      3.739      8.352
REMARK INTER + INTRA:         -11.937
REMARK INTER:                 -10.915
REMARK INTRA:                  -1.022
REMARK UNBOUND:                -1.306
REMARK SMILES O=C(NC(=O)c1ccsc1NC(=O)c1nc2ccccc2s1)OCC1CCCC1
REMARK SMILES IDX 1 1 2 2 3 3 4 4 5 5 23 7 24 8 25 9 26 10 29 11 27 12 28 13
REMARK SMILES IDX 6 14 7 15 10 16 8 17 9 18 11 19 12 20 13 21 14 23 15 24
REMARK SMILES IDX 22 25 16 26 21 27 17 28 20 29 18 30 19 31
REMARK H PARENT 3 6 11 22
ROOT
ATOM      1  O   UNL     1      18.068 -20.365  -2.945  1.00  0.00    -0.224 OA
ATOM      2  C   UNL     1      18.788 -21.333  -2.769  1.00  0.00    +0.414 C 
ATOM      3  N   UNL     1      19.279 -21.815  -1.593  1.00  0.00    -0.257 N 
ATOM      4  C   UNL     1      18.918 -21.372  -0.340  1.00  0.00    +0.263 C 
ATOM      5  O   UNL     1      18.101 -20.483  -0.124  1.00  0.00    -0.269 OA
ATOM      6  H   UNL     1      19.860 -22.626  -1.698  1.00  0.00    +0.176 HD
ENDROOT
BRANCH   2   7
ATOM      7  O   UNL     1      19.271 -22.116  -3.773  1.00  0.00    -0.449 OA
BRANCH   7   8
ATOM      8  C   UNL     1      20.679 -22.381  -3.691  1.00  0.00    +0.238 C 
BRANCH   8   9
ATOM      9  C   UNL     1      21.285 -22.204  -5.078  1.00  0.00    +0.027 C 
ATOM     10  C   UNL     1      22.338 -21.098  -5.148  1.00  0.00    +0.007 C 
ATOM     11  C   UNL     1      20.272 -21.757  -6.125  1.00  0.00    +0.007 C 
ATOM     12  C   UNL     1      22.444 -20.773  -6.635  1.00  0.00    +0.000 C 
ATOM     13  C   UNL     1      21.134 -21.240  -7.270  1.00  0.00    +0.000 C 
ENDBRANCH   8   9
ENDBRANCH   7   8
ENDBRANCH   2   7
BRANCH   4  14
ATOM     14  C   UNL     1      19.576 -22.076   0.774  1.00  0.00    +0.075 A 
ATOM     15  C   UNL     1      20.752 -22.912   0.717  1.00  0.00    +0.028 A 
ATOM     16  C   UNL     1      19.113 -21.990   2.084  1.00  0.00    +0.108 A 
ATOM     17  C   UNL     1      21.102 -23.427   1.944  1.00  0.00    +0.068 A 
ATOM     18  S   UNL     1      20.041 -22.910   3.168  1.00  0.00    -0.126 S 
BRANCH  16  19
ATOM     19  N   UNL     1      18.022 -21.254   2.517  1.00  0.00    -0.311 N 
ATOM     20  C   UNL     1      16.768 -21.709   2.903  1.00  0.00    +0.285 C 
ATOM     21  O   UNL     1      16.402 -22.881   2.913  1.00  0.00    -0.266 OA
ATOM     22  H   UNL     1      18.155 -20.239   2.576  1.00  0.00    +0.171 HD
BRANCH  20  23
ATOM     23  C   UNL     1      15.900 -20.599   3.308  1.00  0.00    +0.182 A 
ATOM     24  N   UNL     1      15.222 -20.608   4.439  1.00  0.00    -0.231 NA
ATOM     25  S   UNL     1      15.715 -19.210   2.328  1.00  0.00    -0.109 S 
ATOM     26  C   UNL     1      14.494 -19.436   4.551  1.00  0.00    +0.082 A 
ATOM     27  C   UNL     1      14.634 -18.539   3.489  1.00  0.00    +0.055 A 
ATOM     28  C   UNL     1      13.649 -19.091   5.625  1.00  0.00    +0.030 A 
ATOM     29  C   UNL     1      13.957 -17.308   3.465  1.00  0.00    +0.021 A 
ATOM     30  C   UNL     1      12.970 -17.868   5.609  1.00  0.00    +0.002 A 
ATOM     31  C   UNL     1      13.124 -16.989   4.542  1.00  0.00    +0.002 A 
ENDBRANCH  20  23
ENDBRANCH  16  19
ENDBRANCH   4  14
TORSDOF 6
ENDMDL
