MODEL 1
REMARK VINA RESULT:    -8.488      0.000      0.000
REMARK INTER + INTRA:         -12.579
REMARK INTER:                 -11.217
REMARK INTRA:                  -1.362
REMARK UNBOUND:                -1.362
REMARK SMILES CC1(c2ccc(S(N)(=O)=O)cc2)NC(=O)N(CC(=O)c2cccc(F)c2)C1=O
REMARK SMILES IDX 1 1 2 2 13 3 14 4 15 5 16 6 27 7 28 8 3 10 4 11 12 12 5 13
REMARK SMILES IDX 11 14 6 15 7 16 9 17 10 18 8 19 17 22 18 23 19 24 20 25
REMARK SMILES IDX 21 26 26 27 22 28 24 29 23 30 25 31
REMARK H PARENT 13 9 8 20 8 21
ROOT
ATOM      1  C   UNL     1      18.285 -23.602   4.222  1.00  0.00    +0.051 C 
ATOM      2  C   UNL     1      17.575 -22.986   3.015  1.00  0.00    +0.144 C 
ATOM      3  N   UNL     1      16.886 -24.029   2.280  1.00  0.00    -0.319 N 
ATOM      4  C   UNL     1      17.308 -24.123   0.976  1.00  0.00    +0.325 C 
ATOM      5  O   UNL     1      16.814 -24.873   0.151  1.00  0.00    -0.248 OA
ATOM      6  N   UNL     1      18.347 -23.269   0.792  1.00  0.00    -0.254 N 
ATOM      7  C   UNL     1      18.609 -22.572   1.937  1.00  0.00    +0.261 C 
ATOM      8  O   UNL     1      19.513 -21.759   2.084  1.00  0.00    -0.271 OA
ATOM      9  H   UNL     1      16.086 -24.551   2.607  1.00  0.00    +0.166 HD
ENDROOT
BRANCH   2  10
ATOM     10  C   UNL     1      16.668 -21.811   3.387  1.00  0.00    -0.013 A 
ATOM     11  C   UNL     1      16.810 -20.537   2.805  1.00  0.00    +0.008 A 
ATOM     12  C   UNL     1      15.666 -21.981   4.365  1.00  0.00    +0.008 A 
ATOM     13  C   UNL     1      15.982 -19.475   3.180  1.00  0.00    +0.022 A 
ATOM     14  C   UNL     1      14.836 -20.924   4.746  1.00  0.00    +0.022 A 
ATOM     15  C   UNL     1      15.007 -19.672   4.158  1.00  0.00    +0.082 A 
BRANCH  15  16
ATOM     16  S   UNL     1      13.978 -18.314   4.643  1.00  0.00    +0.238 S 
ATOM     17  O   UNL     1      12.864 -18.828   5.406  1.00  0.00    -0.207 OA
ATOM     18  O   UNL     1      13.805 -17.445   3.505  1.00  0.00    -0.207 OA
BRANCH  16  19
ATOM     19  N   UNL     1      14.966 -17.528   5.758  1.00  0.00    -0.225 NA
ATOM     20  H   UNL     1      15.940 -17.637   5.471  1.00  0.00    +0.137 HD
ATOM     21  H   UNL     1      14.720 -16.545   5.891  1.00  0.00    +0.137 HD
ENDBRANCH  16  19
ENDBRANCH  15  16
ENDBRANCH   2  10
BRANCH   6  22
ATOM     22  C   UNL     1      19.004 -23.047  -0.475  1.00  0.00    +0.211 C 
BRANCH  22  23
ATOM     23  C   UNL     1      17.991 -22.495  -1.475  1.00  0.00    +0.182 C 
ATOM     24  O   UNL     1      17.653 -23.109  -2.488  1.00  0.00    -0.292 OA
BRANCH  23  25
ATOM     25  C   UNL     1      17.377 -21.160  -1.201  1.00  0.00    +0.022 A 
ATOM     26  C   UNL     1      16.059 -21.018  -0.739  1.00  0.00    +0.012 A 
ATOM     27  C   UNL     1      18.153 -20.016  -1.423  1.00  0.00    +0.051 A 
ATOM     28  C   UNL     1      15.531 -19.745  -0.500  1.00  0.00    +0.004 A 
ATOM     29  C   UNL     1      17.615 -18.759  -1.181  1.00  0.00    +0.123 A 
ATOM     30  C   UNL     1      16.312 -18.612  -0.721  1.00  0.00    +0.039 A 
ATOM     31  F   UNL     1      18.362 -17.668  -1.395  1.00  0.00    -0.207 F 
ENDBRANCH  23  25
ENDBRANCH  22  23
ENDBRANCH   6  22
TORSDOF 6
ENDMDL
MODEL 2
REMARK VINA RESULT:    -8.211      2.236      4.383
REMARK INTER + INTRA:         -12.213
REMARK INTER:                 -10.835
REMARK INTRA:                  -1.378
REMARK UNBOUND:                -1.362
REMARK SMILES CC1(c2ccc(S(N)(=O)=O)cc2)NC(=O)N(CC(=O)c2cccc(F)c2)C1=O
REMARK SMILES IDX 1 1 2 2 13 3 14 4 15 5 16 6 27 7 28 8 3 10 4 11 12 12 5 13
REMARK SMILES IDX 11 14 6 15 7 16 9 17 10 18 8 19 17 22 18 23 19 24 20 25
REMARK SMILES IDX 21 26 26 27 22 28 24 29 23 30 25 31
REMARK H PARENT 13 9 8 20 8 21
ROOT
ATOM      1  C   UNL     1      17.193 -18.290  -0.936  1.00  0.00    +0.051 C 
ATOM      2  C   UNL     1      17.068 -19.488   0.006  1.00  0.00    +0.144 C 
ATOM      3  N   UNL     1      18.383 -20.051   0.244  1.00  0.00    -0.319 N 
ATOM      4  C   UNL     1      18.469 -21.370  -0.131  1.00  0.00    +0.325 C 
ATOM      5  O   UNL     1      19.452 -22.067   0.050  1.00  0.00    -0.248 OA
ATOM      6  N   UNL     1      17.307 -21.729  -0.730  1.00  0.00    -0.254 N 
ATOM      7  C   UNL     1      16.422 -20.688  -0.733  1.00  0.00    +0.261 C 
ATOM      8  O   UNL     1      15.306 -20.703  -1.238  1.00  0.00    -0.271 OA
ATOM      9  H   UNL     1      19.131 -19.604   0.754  1.00  0.00    +0.166 HD
ENDROOT
BRANCH   2  10
ATOM     10  C   UNL     1      16.309 -19.163   1.294  1.00  0.00    -0.013 A 
ATOM     11  C   UNL     1      16.515 -19.877   2.491  1.00  0.00    +0.008 A 
ATOM     12  C   UNL     1      15.345 -18.133   1.299  1.00  0.00    +0.008 A 
ATOM     13  C   UNL     1      15.791 -19.573   3.647  1.00  0.00    +0.022 A 
ATOM     14  C   UNL     1      14.617 -17.825   2.451  1.00  0.00    +0.022 A 
ATOM     15  C   UNL     1      14.837 -18.556   3.616  1.00  0.00    +0.082 A 
BRANCH  15  16
ATOM     16  S   UNL     1      13.908 -18.195   5.081  1.00  0.00    +0.238 S 
ATOM     17  O   UNL     1      13.392 -19.433   5.618  1.00  0.00    -0.207 OA
ATOM     18  O   UNL     1      13.066 -17.053   4.816  1.00  0.00    -0.207 OA
BRANCH  16  19
ATOM     19  N   UNL     1      15.126 -17.713   6.140  1.00  0.00    -0.225 NA
ATOM     20  H   UNL     1      15.280 -18.455   6.825  1.00  0.00    +0.137 HD
ATOM     21  H   UNL     1      15.992 -17.453   5.666  1.00  0.00    +0.137 HD
ENDBRANCH  16  19
ENDBRANCH  15  16
ENDBRANCH   2  10
BRANCH   6  22
ATOM     22  C   UNL     1      17.007 -23.063  -1.194  1.00  0.00    +0.211 C 
BRANCH  22  23
ATOM     23  C   UNL     1      16.270 -23.823  -0.094  1.00  0.00    +0.182 C 
ATOM     24  O   UNL     1      15.118 -24.237  -0.228  1.00  0.00    -0.292 OA
BRANCH  23  25
ATOM     25  C   UNL     1      16.987 -24.084   1.191  1.00  0.00    +0.022 A 
ATOM     26  C   UNL     1      17.971 -25.076   1.316  1.00  0.00    +0.012 A 
ATOM     27  C   UNL     1      16.649 -23.308   2.306  1.00  0.00    +0.051 A 
ATOM     28  C   UNL     1      18.611 -25.282   2.543  1.00  0.00    +0.004 A 
ATOM     29  C   UNL     1      17.294 -23.524   3.518  1.00  0.00    +0.123 A 
ATOM     30  C   UNL     1      18.271 -24.502   3.647  1.00  0.00    +0.039 A 
ATOM     31  F   UNL     1      16.967 -22.778   4.581  1.00  0.00    -0.207 F 
ENDBRANCH  23  25
ENDBRANCH  22  23
ENDBRANCH   6  22
TORSDOF 6
ENDMDL
MODEL 3
REMARK VINA RESULT:    -7.973      3.944      7.159
REMARK INTER + INTRA:         -11.898
REMARK INTER:                 -11.041
REMARK INTRA:                  -0.858
REMARK UNBOUND:                -1.362
REMARK SMILES CC1(c2ccc(S(N)(=O)=O)cc2)NC(=O)N(CC(=O)c2cccc(F)c2)C1=O
REMARK SMILES IDX 1 1 2 2 13 3 14 4 15 5 16 6 27 7 28 8 3 10 4 11 12 12 5 13
REMARK SMILES IDX 11 14 6 15 7 16 9 17 10 18 8 19 17 22 18 23 19 24 20 25
REMARK SMILES IDX 21 26 26 27 22 28 24 29 23 30 25 31
REMARK H PARENT 13 9 8 20 8 21
ROOT
ATOM      1  C   UNL     1      15.774 -23.828   0.170  1.00  0.00    +0.051 C 
ATOM      2  C   UNL     1      17.191 -23.406   0.563  1.00  0.00    +0.144 C 
ATOM      3  N   UNL     1      17.781 -24.429   1.403  1.00  0.00    -0.319 N 
ATOM      4  C   UNL     1      18.155 -23.951   2.635  1.00  0.00    +0.325 C 
ATOM      5  O   UNL     1      18.743 -24.613   3.474  1.00  0.00    -0.248 OA
ATOM      6  N   UNL     1      17.748 -22.662   2.744  1.00  0.00    -0.254 N 
ATOM      7  C   UNL     1      17.140 -22.248   1.592  1.00  0.00    +0.261 C 
ATOM      8  O   UNL     1      16.638 -21.145   1.409  1.00  0.00    -0.271 OA
ATOM      9  H   UNL     1      18.035 -25.360   1.106  1.00  0.00    +0.166 HD
ENDROOT
BRANCH   2  10
ATOM     10  C   UNL     1      18.063 -23.036  -0.639  1.00  0.00    -0.013 A 
ATOM     11  C   UNL     1      19.441 -23.321  -0.685  1.00  0.00    +0.008 A 
ATOM     12  C   UNL     1      17.493 -22.359  -1.737  1.00  0.00    +0.008 A 
ATOM     13  C   UNL     1      20.219 -22.951  -1.787  1.00  0.00    +0.022 A 
ATOM     14  C   UNL     1      18.264 -21.984  -2.840  1.00  0.00    +0.022 A 
ATOM     15  C   UNL     1      19.627 -22.273  -2.852  1.00  0.00    +0.082 A 
BRANCH  15  16
ATOM     16  S   UNL     1      20.626 -21.787  -4.232  1.00  0.00    +0.238 S 
ATOM     17  O   UNL     1      20.926 -22.960  -5.021  1.00  0.00    -0.207 OA
ATOM     18  O   UNL     1      21.650 -20.887  -3.759  1.00  0.00    -0.207 OA
BRANCH  16  19
ATOM     19  N   UNL     1      19.526 -20.896  -5.145  1.00  0.00    -0.225 NA
ATOM     20  H   UNL     1      19.876 -20.820  -6.102  1.00  0.00    +0.137 HD
ATOM     21  H   UNL     1      18.579 -21.278  -5.119  1.00  0.00    +0.137 HD
ENDBRANCH  16  19
ENDBRANCH  15  16
ENDBRANCH   2  10
BRANCH   6  22
ATOM     22  C   UNL     1      18.027 -21.812   3.877  1.00  0.00    +0.211 C 
BRANCH  22  23
ATOM     23  C   UNL     1      16.945 -22.017   4.935  1.00  0.00    +0.182 C 
ATOM     24  O   UNL     1      16.808 -23.074   5.553  1.00  0.00    -0.292 OA
BRANCH  23  25
ATOM     25  C   UNL     1      16.025 -20.879   5.239  1.00  0.00    +0.022 A 
ATOM     26  C   UNL     1      14.682 -20.866   4.832  1.00  0.00    +0.012 A 
ATOM     27  C   UNL     1      16.536 -19.787   5.953  1.00  0.00    +0.051 A 
ATOM     28  C   UNL     1      13.863 -19.775   5.141  1.00  0.00    +0.004 A 
ATOM     29  C   UNL     1      15.710 -18.711   6.252  1.00  0.00    +0.123 A 
ATOM     30  C   UNL     1      14.379 -18.694   5.854  1.00  0.00    +0.039 A 
ATOM     31  F   UNL     1      16.204 -17.670   6.935  1.00  0.00    -0.207 F 
ENDBRANCH  23  25
ENDBRANCH  22  23
ENDBRANCH   6  22
TORSDOF 6
ENDMDL
MODEL 4
REMARK VINA RESULT:    -7.955      2.232      3.275
REMARK INTER + INTRA:         -11.875
REMARK INTER:                 -11.199
REMARK INTRA:                  -0.677
REMARK UNBOUND:                -1.362
REMARK SMILES CC1(c2ccc(S(N)(=O)=O)cc2)NC(=O)N(CC(=O)c2cccc(F)c2)C1=O
REMARK SMILES IDX 1 1 2 2 13 3 14 4 15 5 16 6 27 7 28 8 3 10 4 11 12 12 5 13
REMARK SMILES IDX 11 14 6 15 7 16 9 17 10 18 8 19 17 22 18 23 19 24 20 25
REMARK SMILES IDX 21 26 26 27 22 28 24 29 23 30 25 31
REMARK H PARENT 13 9 8 20 8 21
ROOT
ATOM      1  C   UNL     1      17.978 -23.642   3.769  1.00  0.00    +0.051 C 
ATOM      2  C   UNL     1      17.242 -22.737   2.779  1.00  0.00    +0.144 C 
ATOM      3  N   UNL     1      16.462 -23.554   1.870  1.00  0.00    -0.319 N 
ATOM      4  C   UNL     1      16.812 -23.364   0.556  1.00  0.00    +0.325 C 
ATOM      5  O   UNL     1      16.237 -23.885  -0.385  1.00  0.00    -0.248 OA
ATOM      6  N   UNL     1      17.884 -22.535   0.506  1.00  0.00    -0.254 N 
ATOM      7  C   UNL     1      18.242 -22.130   1.762  1.00  0.00    +0.261 C 
ATOM      8  O   UNL     1      19.195 -21.410   2.033  1.00  0.00    -0.271 OA
ATOM      9  H   UNL     1      15.653 -24.104   2.120  1.00  0.00    +0.166 HD
ENDROOT
BRANCH   2  10
ATOM     10  C   UNL     1      16.420 -21.642   3.462  1.00  0.00    -0.013 A 
ATOM     11  C   UNL     1      15.785 -21.841   4.704  1.00  0.00    +0.008 A 
ATOM     12  C   UNL     1      16.256 -20.392   2.831  1.00  0.00    +0.008 A 
ATOM     13  C   UNL     1      15.021 -20.830   5.293  1.00  0.00    +0.022 A 
ATOM     14  C   UNL     1      15.492 -19.378   3.414  1.00  0.00    +0.022 A 
ATOM     15  C   UNL     1      14.869 -19.608   4.638  1.00  0.00    +0.082 A 
BRANCH  15  16
ATOM     16  S   UNL     1      13.879 -18.342   5.383  1.00  0.00    +0.238 S 
ATOM     17  O   UNL     1      14.580 -17.826   6.536  1.00  0.00    -0.207 OA
ATOM     18  O   UNL     1      12.515 -18.810   5.449  1.00  0.00    -0.207 OA
BRANCH  16  19
ATOM     19  N   UNL     1      13.960 -17.126   4.221  1.00  0.00    -0.225 NA
ATOM     20  H   UNL     1      13.535 -16.278   4.601  1.00  0.00    +0.137 HD
ATOM     21  H   UNL     1      14.909 -16.953   3.885  1.00  0.00    +0.137 HD
ENDBRANCH  16  19
ENDBRANCH  15  16
ENDBRANCH   2  10
BRANCH   6  22
ATOM     22  C   UNL     1      18.488 -22.055  -0.715  1.00  0.00    +0.211 C 
BRANCH  22  23
ATOM     23  C   UNL     1      19.579 -23.030  -1.151  1.00  0.00    +0.182 C 
ATOM     24  O   UNL     1      20.074 -23.861  -0.389  1.00  0.00    -0.292 OA
BRANCH  23  25
ATOM     25  C   UNL     1      20.053 -22.977  -2.568  1.00  0.00    +0.022 A 
ATOM     26  C   UNL     1      20.898 -23.954  -3.116  1.00  0.00    +0.012 A 
ATOM     27  C   UNL     1      19.636 -21.905  -3.366  1.00  0.00    +0.051 A 
ATOM     28  C   UNL     1      21.314 -23.857  -4.448  1.00  0.00    +0.004 A 
ATOM     29  C   UNL     1      20.058 -21.822  -4.687  1.00  0.00    +0.123 A 
ATOM     30  C   UNL     1      20.892 -22.788  -5.236  1.00  0.00    +0.039 A 
ATOM     31  F   UNL     1      19.655 -20.794  -5.446  1.00  0.00    -0.207 F 
ENDBRANCH  23  25
ENDBRANCH  22  23
ENDBRANCH   6  22
TORSDOF 6
ENDMDL
MODEL 5
REMARK VINA RESULT:    -7.955      3.924      7.313
REMARK INTER + INTRA:         -11.874
REMARK INTER:                 -11.172
REMARK INTRA:                  -0.702
REMARK UNBOUND:                -1.362
REMARK SMILES CC1(c2ccc(S(N)(=O)=O)cc2)NC(=O)N(CC(=O)c2cccc(F)c2)C1=O
REMARK SMILES IDX 1 1 2 2 13 3 14 4 15 5 16 6 27 7 28 8 3 10 4 11 12 12 5 13
REMARK SMILES IDX 11 14 6 15 7 16 9 17 10 18 8 19 17 22 18 23 19 24 20 25
REMARK SMILES IDX 21 26 26 27 22 28 24 29 23 30 25 31
REMARK H PARENT 13 9 8 20 8 21
ROOT
ATOM      1  C   UNL     1      16.412 -23.838  -0.042  1.00  0.00    +0.051 C 
ATOM      2  C   UNL     1      17.500 -22.818   0.298  1.00  0.00    +0.144 C 
ATOM      3  N   UNL     1      18.164 -23.214   1.524  1.00  0.00    -0.319 N 
ATOM      4  C   UNL     1      18.076 -22.258   2.506  1.00  0.00    +0.325 C 
ATOM      5  O   UNL     1      18.628 -22.341   3.590  1.00  0.00    -0.248 OA
ATOM      6  N   UNL     1      17.280 -21.252   2.065  1.00  0.00    -0.254 N 
ATOM      7  C   UNL     1      16.859 -21.494   0.787  1.00  0.00    +0.261 C 
ATOM      8  O   UNL     1      16.100 -20.781   0.142  1.00  0.00    -0.271 OA
ATOM      9  H   UNL     1      18.753 -24.027   1.639  1.00  0.00    +0.166 HD
ENDROOT
BRANCH   2  10
ATOM     10  C   UNL     1      18.470 -22.565  -0.858  1.00  0.00    -0.013 A 
ATOM     11  C   UNL     1      19.867 -22.553  -0.680  1.00  0.00    +0.008 A 
ATOM     12  C   UNL     1      17.968 -22.305  -2.150  1.00  0.00    +0.008 A 
ATOM     13  C   UNL     1      20.729 -22.296  -1.750  1.00  0.00    +0.022 A 
ATOM     14  C   UNL     1      18.824 -22.046  -3.224  1.00  0.00    +0.022 A 
ATOM     15  C   UNL     1      20.201 -22.032  -3.013  1.00  0.00    +0.082 A 
BRANCH  15  16
ATOM     16  S   UNL     1      21.301 -21.684  -4.357  1.00  0.00    +0.238 S 
ATOM     17  O   UNL     1      20.610 -20.856  -5.318  1.00  0.00    -0.207 OA
ATOM     18  O   UNL     1      21.969 -22.909  -4.727  1.00  0.00    -0.207 OA
BRANCH  16  19
ATOM     19  N   UNL     1      22.429 -20.676  -3.616  1.00  0.00    -0.225 NA
ATOM     20  H   UNL     1      23.339 -21.140  -3.619  1.00  0.00    +0.137 HD
ATOM     21  H   UNL     1      22.477 -19.748  -4.038  1.00  0.00    +0.137 HD
ENDBRANCH  16  19
ENDBRANCH  15  16
ENDBRANCH   2  10
BRANCH   6  22
ATOM     22  C   UNL     1      17.014 -20.040   2.802  1.00  0.00    +0.211 C 
BRANCH  22  23
ATOM     23  C   UNL     1      15.792 -20.253   3.692  1.00  0.00    +0.182 C 
ATOM     24  O   UNL     1      15.564 -21.318   4.268  1.00  0.00    -0.292 OA
BRANCH  23  25
ATOM     25  C   UNL     1      14.843 -19.114   3.881  1.00  0.00    +0.022 A 
ATOM     26  C   UNL     1      14.590 -18.169   2.873  1.00  0.00    +0.012 A 
ATOM     27  C   UNL     1      14.194 -18.990   5.115  1.00  0.00    +0.051 A 
ATOM     28  C   UNL     1      13.694 -17.120   3.102  1.00  0.00    +0.004 A 
ATOM     29  C   UNL     1      13.307 -17.942   5.326  1.00  0.00    +0.123 A 
ATOM     30  C   UNL     1      13.050 -17.007   4.332  1.00  0.00    +0.039 A 
ATOM     31  F   UNL     1      12.688 -17.830   6.509  1.00  0.00    -0.207 F 
ENDBRANCH  23  25
ENDBRANCH  22  23
ENDBRANCH   6  22
TORSDOF 6
ENDMDL
MODEL 6
REMARK VINA RESULT:    -7.689      3.254      4.107
REMARK INTER + INTRA:         -11.524
REMARK INTER:                 -10.684
REMARK INTRA:                  -0.839
REMARK UNBOUND:                -1.362
REMARK SMILES CC1(c2ccc(S(N)(=O)=O)cc2)NC(=O)N(CC(=O)c2cccc(F)c2)C1=O
REMARK SMILES IDX 1 1 2 2 13 3 14 4 15 5 16 6 27 7 28 8 3 10 4 11 12 12 5 13
REMARK SMILES IDX 11 14 6 15 7 16 9 17 10 18 8 19 17 22 18 23 19 24 20 25
REMARK SMILES IDX 21 26 26 27 22 28 24 29 23 30 25 31
REMARK H PARENT 13 9 8 20 8 21
ROOT
ATOM      1  C   UNL     1      17.804 -24.516   1.445  1.00  0.00    +0.051 C 
ATOM      2  C   UNL     1      17.530 -23.120   0.883  1.00  0.00    +0.144 C 
ATOM      3  N   UNL     1      16.727 -23.234  -0.319  1.00  0.00    -0.319 N 
ATOM      4  C   UNL     1      17.340 -22.686  -1.418  1.00  0.00    +0.325 C 
ATOM      5  O   UNL     1      16.819 -22.597  -2.517  1.00  0.00    -0.248 OA
ATOM      6  N   UNL     1      18.590 -22.292  -1.069  1.00  0.00    -0.254 N 
ATOM      7  C   UNL     1      18.819 -22.530   0.257  1.00  0.00    +0.261 C 
ATOM      8  O   UNL     1      19.871 -22.314   0.848  1.00  0.00    -0.271 OA
ATOM      9  H   UNL     1      15.767 -23.546  -0.358  1.00  0.00    +0.166 HD
ENDROOT
BRANCH   2  10
ATOM     10  C   UNL     1      16.933 -22.162   1.917  1.00  0.00    -0.013 A 
ATOM     11  C   UNL     1      16.891 -20.769   1.718  1.00  0.00    +0.008 A 
ATOM     12  C   UNL     1      16.427 -22.670   3.132  1.00  0.00    +0.008 A 
ATOM     13  C   UNL     1      16.361 -19.916   2.690  1.00  0.00    +0.022 A 
ATOM     14  C   UNL     1      15.898 -21.822   4.109  1.00  0.00    +0.022 A 
ATOM     15  C   UNL     1      15.878 -20.447   3.885  1.00  0.00    +0.082 A 
BRANCH  15  16
ATOM     16  S   UNL     1      15.230 -19.355   5.120  1.00  0.00    +0.238 S 
ATOM     17  O   UNL     1      16.334 -18.781   5.854  1.00  0.00    -0.207 OA
ATOM     18  O   UNL     1      14.123 -20.011   5.772  1.00  0.00    -0.207 OA
BRANCH  16  19
ATOM     19  N   UNL     1      14.615 -18.105   4.173  1.00  0.00    -0.225 NA
ATOM     20  H   UNL     1      15.150 -18.056   3.304  1.00  0.00    +0.137 HD
ATOM     21  H   UNL     1      13.614 -18.191   3.995  1.00  0.00    +0.137 HD
ENDBRANCH  16  19
ENDBRANCH  15  16
ENDBRANCH   2  10
BRANCH   6  22
ATOM     22  C   UNL     1      19.506 -21.609  -1.952  1.00  0.00    +0.211 C 
BRANCH  22  23
ATOM     23  C   UNL     1      20.295 -22.642  -2.752  1.00  0.00    +0.182 C 
ATOM     24  O   UNL     1      20.617 -23.738  -2.292  1.00  0.00    -0.292 OA
BRANCH  23  25
ATOM     25  C   UNL     1      20.679 -22.308  -4.158  1.00  0.00    +0.022 A 
ATOM     26  C   UNL     1      21.593 -21.289  -4.468  1.00  0.00    +0.012 A 
ATOM     27  C   UNL     1      20.092 -23.043  -5.196  1.00  0.00    +0.051 A 
ATOM     28  C   UNL     1      21.916 -21.016  -5.802  1.00  0.00    +0.004 A 
ATOM     29  C   UNL     1      20.424 -22.760  -6.515  1.00  0.00    +0.123 A 
ATOM     30  C   UNL     1      21.330 -21.755  -6.828  1.00  0.00    +0.039 A 
ATOM     31  F   UNL     1      19.860 -23.467  -7.503  1.00  0.00    -0.207 F 
ENDBRANCH  23  25
ENDBRANCH  22  23
ENDBRANCH   6  22
TORSDOF 6
ENDMDL
MODEL 7
REMARK VINA RESULT:    -7.488      2.504      4.733
REMARK INTER + INTRA:         -11.257
REMARK INTER:                  -9.851
REMARK INTRA:                  -1.406
REMARK UNBOUND:                -1.362
REMARK SMILES CC1(c2ccc(S(N)(=O)=O)cc2)NC(=O)N(CC(=O)c2cccc(F)c2)C1=O
REMARK SMILES IDX 1 1 2 2 13 3 14 4 15 5 16 6 27 7 28 8 3 10 4 11 12 12 5 13
REMARK SMILES IDX 11 14 6 15 7 16 9 17 10 18 8 19 17 22 18 23 19 24 20 25
REMARK SMILES IDX 21 26 26 27 22 28 24 29 23 30 25 31
REMARK H PARENT 13 9 8 20 8 21
ROOT
ATOM      1  C   UNL     1      16.622 -20.123  -1.113  1.00  0.00    +0.051 C 
ATOM      2  C   UNL     1      17.187 -20.879   0.090  1.00  0.00    +0.144 C 
ATOM      3  N   UNL     1      18.635 -20.830   0.051  1.00  0.00    -0.319 N 
ATOM      4  C   UNL     1      19.206 -22.078   0.008  1.00  0.00    +0.325 C 
ATOM      5  O   UNL     1      20.407 -22.281   0.051  1.00  0.00    -0.248 OA
ATOM      6  N   UNL     1      18.220 -23.004  -0.101  1.00  0.00    -0.254 N 
ATOM      7  C   UNL     1      16.992 -22.405  -0.095  1.00  0.00    +0.261 C 
ATOM      8  O   UNL     1      15.918 -22.983  -0.218  1.00  0.00    -0.271 OA
ATOM      9  H   UNL     1      19.200 -20.003   0.181  1.00  0.00    +0.166 HD
ENDROOT
BRANCH   2  10
ATOM     10  C   UNL     1      16.604 -20.408   1.424  1.00  0.00    -0.013 A 
ATOM     11  C   UNL     1      15.832 -19.235   1.537  1.00  0.00    +0.008 A 
ATOM     12  C   UNL     1      16.860 -21.144   2.600  1.00  0.00    +0.008 A 
ATOM     13  C   UNL     1      15.331 -18.816   2.772  1.00  0.00    +0.022 A 
ATOM     14  C   UNL     1      16.364 -20.730   3.838  1.00  0.00    +0.022 A 
ATOM     15  C   UNL     1      15.611 -19.560   3.918  1.00  0.00    +0.082 A 
BRANCH  15  16
ATOM     16  S   UNL     1      14.991 -19.008   5.483  1.00  0.00    +0.238 S 
ATOM     17  O   UNL     1      16.098 -18.892   6.404  1.00  0.00    -0.207 OA
ATOM     18  O   UNL     1      13.799 -19.761   5.793  1.00  0.00    -0.207 OA
BRANCH  16  19
ATOM     19  N   UNL     1      14.533 -17.427   5.123  1.00  0.00    -0.225 NA
ATOM     20  H   UNL     1      14.147 -16.996   5.965  1.00  0.00    +0.137 HD
ATOM     21  H   UNL     1      15.290 -16.869   4.727  1.00  0.00    +0.137 HD
ENDBRANCH  16  19
ENDBRANCH  15  16
ENDBRANCH   2  10
BRANCH   6  22
ATOM     22  C   UNL     1      18.439 -24.431  -0.105  1.00  0.00    +0.211 C 
BRANCH  22  23
ATOM     23  C   UNL     1      18.238 -24.973   1.308  1.00  0.00    +0.182 C 
ATOM     24  O   UNL     1      17.231 -25.598   1.645  1.00  0.00    -0.292 OA
BRANCH  23  25
ATOM     25  C   UNL     1      19.317 -24.745   2.316  1.00  0.00    +0.022 A 
ATOM     26  C   UNL     1      20.585 -25.336   2.210  1.00  0.00    +0.012 A 
ATOM     27  C   UNL     1      19.038 -23.913   3.408  1.00  0.00    +0.051 A 
ATOM     28  C   UNL     1      21.560 -25.092   3.183  1.00  0.00    +0.004 A 
ATOM     29  C   UNL     1      20.016 -23.680   4.366  1.00  0.00    +0.123 A 
ATOM     30  C   UNL     1      21.274 -24.260   4.264  1.00  0.00    +0.039 A 
ATOM     31  F   UNL     1      19.743 -22.883   5.408  1.00  0.00    -0.207 F 
ENDBRANCH  23  25
ENDBRANCH  22  23
ENDBRANCH   6  22
TORSDOF 6
ENDMDL
MODEL 8
REMARK VINA RESULT:    -7.477      3.295      5.234
REMARK INTER + INTRA:         -11.243
REMARK INTER:                 -10.495
REMARK INTRA:                  -0.748
REMARK UNBOUND:                -1.362
REMARK SMILES CC1(c2ccc(S(N)(=O)=O)cc2)NC(=O)N(CC(=O)c2cccc(F)c2)C1=O
REMARK SMILES IDX 1 1 2 2 13 3 14 4 15 5 16 6 27 7 28 8 3 10 4 11 12 12 5 13
REMARK SMILES IDX 11 14 6 15 7 16 9 17 10 18 8 19 17 22 18 23 19 24 20 25
REMARK SMILES IDX 21 26 26 27 22 28 24 29 23 30 25 31
REMARK H PARENT 13 9 8 20 8 21
ROOT
ATOM      1  C   UNL     1      17.966 -19.905  -0.111  1.00  0.00    +0.051 C 
ATOM      2  C   UNL     1      17.518 -20.580   1.186  1.00  0.00    +0.144 C 
ATOM      3  N   UNL     1      18.680 -20.869   2.003  1.00  0.00    -0.319 N 
ATOM      4  C   UNL     1      18.807 -22.206   2.289  1.00  0.00    +0.325 C 
ATOM      5  O   UNL     1      19.662 -22.669   3.024  1.00  0.00    -0.248 OA
ATOM      6  N   UNL     1      17.850 -22.888   1.612  1.00  0.00    -0.254 N 
ATOM      7  C   UNL     1      17.054 -22.032   0.904  1.00  0.00    +0.261 C 
ATOM      8  O   UNL     1      16.131 -22.361   0.169  1.00  0.00    -0.271 OA
ATOM      9  H   UNL     1      19.272 -20.182   2.449  1.00  0.00    +0.166 HD
ENDROOT
BRANCH   2  10
ATOM     10  C   UNL     1      16.438 -19.792   1.931  1.00  0.00    -0.013 A 
ATOM     11  C   UNL     1      15.739 -18.724   1.336  1.00  0.00    +0.008 A 
ATOM     12  C   UNL     1      16.136 -20.113   3.271  1.00  0.00    +0.008 A 
ATOM     13  C   UNL     1      14.774 -18.007   2.049  1.00  0.00    +0.022 A 
ATOM     14  C   UNL     1      15.173 -19.399   3.989  1.00  0.00    +0.022 A 
ATOM     15  C   UNL     1      14.505 -18.342   3.375  1.00  0.00    +0.082 A 
BRANCH  15  16
ATOM     16  S   UNL     1      13.296 -17.412   4.276  1.00  0.00    +0.238 S 
ATOM     17  O   UNL     1      12.731 -18.259   5.301  1.00  0.00    -0.207 OA
ATOM     18  O   UNL     1      12.481 -16.688   3.330  1.00  0.00    -0.207 OA
BRANCH  16  19
ATOM     19  N   UNL     1      14.266 -16.301   5.090  1.00  0.00    -0.225 NA
ATOM     20  H   UNL     1      13.828 -15.380   5.039  1.00  0.00    +0.137 HD
ATOM     21  H   UNL     1      14.464 -16.571   6.055  1.00  0.00    +0.137 HD
ENDBRANCH  16  19
ENDBRANCH  15  16
ENDBRANCH   2  10
BRANCH   6  22
ATOM     22  C   UNL     1      17.632 -24.312   1.721  1.00  0.00    +0.211 C 
BRANCH  22  23
ATOM     23  C   UNL     1      18.477 -25.030   0.671  1.00  0.00    +0.182 C 
ATOM     24  O   UNL     1      19.255 -24.437  -0.078  1.00  0.00    -0.292 OA
BRANCH  23  25
ATOM     25  C   UNL     1      18.362 -26.516   0.562  1.00  0.00    +0.022 A 
ATOM     26  C   UNL     1      19.345 -27.305  -0.056  1.00  0.00    +0.012 A 
ATOM     27  C   UNL     1      17.223 -27.132   1.095  1.00  0.00    +0.051 A 
ATOM     28  C   UNL     1      19.187 -28.692  -0.133  1.00  0.00    +0.004 A 
ATOM     29  C   UNL     1      17.081 -28.511   1.010  1.00  0.00    +0.123 A 
ATOM     30  C   UNL     1      18.052 -29.297   0.402  1.00  0.00    +0.039 A 
ATOM     31  F   UNL     1      15.990 -29.096   1.522  1.00  0.00    -0.207 F 
ENDBRANCH  23  25
ENDBRANCH  22  23
ENDBRANCH   6  22
TORSDOF 6
ENDMDL
MODEL 9
REMARK VINA RESULT:    -7.246      2.370      3.820
REMARK INTER + INTRA:         -10.938
REMARK INTER:                 -10.005
REMARK INTRA:                  -0.932
REMARK UNBOUND:                -1.362
REMARK SMILES CC1(c2ccc(S(N)(=O)=O)cc2)NC(=O)N(CC(=O)c2cccc(F)c2)C1=O
REMARK SMILES IDX 1 1 2 2 13 3 14 4 15 5 16 6 27 7 28 8 3 10 4 11 12 12 5 13
REMARK SMILES IDX 11 14 6 15 7 16 9 17 10 18 8 19 17 22 18 23 19 24 20 25
REMARK SMILES IDX 21 26 26 27 22 28 24 29 23 30 25 31
REMARK H PARENT 13 9 8 20 8 21
ROOT
ATOM      1  C   UNL     1      17.691 -23.734   3.863  1.00  0.00    +0.051 C 
ATOM      2  C   UNL     1      17.097 -22.738   2.866  1.00  0.00    +0.144 C 
ATOM      3  N   UNL     1      16.364 -23.460   1.845  1.00  0.00    -0.319 N 
ATOM      4  C   UNL     1      16.843 -23.221   0.580  1.00  0.00    +0.325 C 
ATOM      5  O   UNL     1      16.332 -23.658  -0.437  1.00  0.00    -0.248 OA
ATOM      6  N   UNL     1      17.956 -22.452   0.675  1.00  0.00    -0.254 N 
ATOM      7  C   UNL     1      18.216 -22.135   1.978  1.00  0.00    +0.261 C 
ATOM      8  O   UNL     1      19.176 -21.484   2.375  1.00  0.00    -0.271 OA
ATOM      9  H   UNL     1      15.508 -23.976   1.989  1.00  0.00    +0.166 HD
ENDROOT
BRANCH   2  10
ATOM     10  C   UNL     1      16.272 -21.636   3.534  1.00  0.00    -0.013 A 
ATOM     11  C   UNL     1      15.525 -21.861   4.707  1.00  0.00    +0.008 A 
ATOM     12  C   UNL     1      16.221 -20.350   2.957  1.00  0.00    +0.008 A 
ATOM     13  C   UNL     1      14.762 -20.842   5.283  1.00  0.00    +0.022 A 
ATOM     14  C   UNL     1      15.459 -19.328   3.527  1.00  0.00    +0.022 A 
ATOM     15  C   UNL     1      14.724 -19.584   4.683  1.00  0.00    +0.082 A 
BRANCH  15  16
ATOM     16  S   UNL     1      13.734 -18.306   5.408  1.00  0.00    +0.238 S 
ATOM     17  O   UNL     1      14.413 -17.807   6.582  1.00  0.00    -0.207 OA
ATOM     18  O   UNL     1      12.362 -18.753   5.435  1.00  0.00    -0.207 OA
BRANCH  16  19
ATOM     19  N   UNL     1      13.865 -17.085   4.255  1.00  0.00    -0.225 NA
ATOM     20  H   UNL     1      14.179 -16.229   4.715  1.00  0.00    +0.137 HD
ATOM     21  H   UNL     1      14.471 -17.335   3.472  1.00  0.00    +0.137 HD
ENDBRANCH  16  19
ENDBRANCH  15  16
ENDBRANCH   2  10
BRANCH   6  22
ATOM     22  C   UNL     1      18.694 -21.943  -0.457  1.00  0.00    +0.211 C 
BRANCH  22  23
ATOM     23  C   UNL     1      19.619 -23.036  -0.986  1.00  0.00    +0.182 C 
ATOM     24  O   UNL     1      19.696 -23.324  -2.181  1.00  0.00    -0.292 OA
BRANCH  23  25
ATOM     25  C   UNL     1      20.475 -23.776  -0.009  1.00  0.00    +0.022 A 
ATOM     26  C   UNL     1      20.180 -25.081   0.415  1.00  0.00    +0.012 A 
ATOM     27  C   UNL     1      21.608 -23.129   0.500  1.00  0.00    +0.051 A 
ATOM     28  C   UNL     1      21.013 -25.728   1.333  1.00  0.00    +0.004 A 
ATOM     29  C   UNL     1      22.426 -23.785   1.411  1.00  0.00    +0.123 A 
ATOM     30  C   UNL     1      22.140 -25.078   1.832  1.00  0.00    +0.039 A 
ATOM     31  F   UNL     1      23.509 -23.162   1.894  1.00  0.00    -0.207 F 
ENDBRANCH  23  25
ENDBRANCH  22  23
ENDBRANCH   6  22
TORSDOF 6
ENDMDL
