MODEL 1
REMARK VINA RESULT:    -9.465      0.000      0.000
REMARK INTER + INTRA:         -12.838
REMARK INTER:                 -12.231
REMARK INTRA:                  -0.607
REMARK UNBOUND:                -0.607
REMARK SMILES COC(=O)C#Cc1cc(C(F)(F)F)cc2c(=O)nc(N3CCN(CC4CCCCC4)CC3)sc12
REMARK SMILES IDX 6 1 7 2 8 3 9 4 14 5 15 6 16 7 17 8 18 9 19 10 20 11 21 12
REMARK SMILES IDX 22 13 23 14 31 15 32 16 33 17 34 18 5 19 3 20 4 21 2 22 1 23
REMARK SMILES IDX 10 24 11 25 12 26 13 27 24 28 25 29 26 30 30 31 27 32 29 33
REMARK SMILES IDX 28 34
REMARK H PARENT
ROOT
ATOM      1  C   UNL     1      15.362 -18.948   3.023  1.00  0.00    -0.053 C 
ATOM      2  C   UNL     1      16.023 -20.099   3.569  1.00  0.00    +0.044 A 
ATOM      3  C   UNL     1      15.564 -20.594   4.801  1.00  0.00    +0.031 A 
ATOM      4  C   UNL     1      16.163 -21.710   5.402  1.00  0.00    +0.058 A 
ATOM      5  C   UNL     1      17.241 -22.320   4.748  1.00  0.00    +0.028 A 
ATOM      6  C   UNL     1      17.688 -21.836   3.508  1.00  0.00    +0.061 A 
ATOM      7  C   UNL     1      18.826 -22.503   2.839  1.00  0.00    +0.281 C 
ATOM      8  O   UNL     1      19.650 -23.071   3.548  1.00  0.00    -0.267 OA
ATOM      9  N   UNL     1      18.877 -22.545   1.475  1.00  0.00    -0.181 NA
ATOM     10  C   UNL     1      18.467 -21.576   0.717  1.00  0.00    +0.189 C 
ATOM     11  N   UNL     1      18.552 -21.676  -0.672  1.00  0.00    -0.345 N 
ATOM     12  C   UNL     1      19.322 -22.818  -1.222  1.00  0.00    +0.134 C 
ATOM     13  C   UNL     1      18.988 -23.097  -2.702  1.00  0.00    +0.106 C 
ATOM     14  N   UNL     1      19.080 -21.930  -3.601  1.00  0.00    -0.300 NA
ATOM     15  C   UNL     1      18.233 -20.862  -3.030  1.00  0.00    +0.106 C 
ATOM     16  C   UNL     1      18.531 -20.493  -1.559  1.00  0.00    +0.134 C 
ATOM     17  S   UNL     1      17.775 -20.102   1.393  1.00  0.00    -0.097 SA
ATOM     18  C   UNL     1      17.098 -20.725   2.912  1.00  0.00    +0.059 A 
ENDROOT
BRANCH   1  19
ATOM     19  C   UNL     1      14.812 -17.987   2.558  1.00  0.00    +0.022 C 
ATOM     20  C   UNL     1      14.164 -16.829   1.999  1.00  0.00    +0.384 C 
ATOM     21  O   UNL     1      14.766 -16.052   1.276  1.00  0.00    -0.236 OA
BRANCH  20  22
ATOM     22  O   UNL     1      12.862 -16.743   2.373  1.00  0.00    -0.459 OA
ATOM     23  C   UNL     1      12.668 -16.771   3.787  1.00  0.00    +0.283 C 
ENDBRANCH  20  22
ENDBRANCH   1  19
BRANCH   4  24
ATOM     24  C   UNL     1      15.687 -22.215   6.742  1.00  0.00    +0.416 C 
ATOM     25  F   UNL     1      16.132 -21.443   7.770  1.00  0.00    -0.166 F 
ATOM     26  F   UNL     1      16.098 -23.482   7.011  1.00  0.00    -0.166 F 
ATOM     27  F   UNL     1      14.329 -22.233   6.847  1.00  0.00    -0.166 F 
ENDBRANCH   4  24
BRANCH  14  28
ATOM     28  C   UNL     1      20.458 -21.460  -3.823  1.00  0.00    +0.088 C 
BRANCH  28  29
ATOM     29  C   UNL     1      21.201 -22.191  -4.970  1.00  0.00    +0.003 C 
ATOM     30  C   UNL     1      20.246 -22.526  -6.135  1.00  0.00    +0.005 C 
ATOM     31  C   UNL     1      22.422 -21.367  -5.438  1.00  0.00    +0.005 C 
ATOM     32  C   UNL     1      20.996 -22.689  -7.451  1.00  0.00    +0.000 C 
ATOM     33  C   UNL     1      22.117 -20.527  -6.672  1.00  0.00    +0.000 C 
ATOM     34  C   UNL     1      21.703 -21.397  -7.860  1.00  0.00    +0.000 C 
ENDBRANCH  28  29
ENDBRANCH  14  28
TORSDOF 5
ENDMDL
MODEL 2
REMARK VINA RESULT:    -8.543      1.905      2.534
REMARK INTER + INTRA:         -11.647
REMARK INTER:                 -11.309
REMARK INTRA:                  -0.338
REMARK UNBOUND:                -0.607
REMARK SMILES COC(=O)C#Cc1cc(C(F)(F)F)cc2c(=O)nc(N3CCN(CC4CCCCC4)CC3)sc12
REMARK SMILES IDX 6 1 7 2 8 3 9 4 14 5 15 6 16 7 17 8 18 9 19 10 20 11 21 12
REMARK SMILES IDX 22 13 23 14 31 15 32 16 33 17 34 18 5 19 3 20 4 21 2 22 1 23
REMARK SMILES IDX 10 24 11 25 12 26 13 27 24 28 25 29 26 30 30 31 27 32 29 33
REMARK SMILES IDX 28 34
REMARK H PARENT
ROOT
ATOM      1  C   UNL     1      16.554 -19.717   2.263  1.00  0.00    -0.053 C 
ATOM      2  C   UNL     1      16.930 -20.728   3.209  1.00  0.00    +0.044 A 
ATOM      3  C   UNL     1      16.164 -20.844   4.381  1.00  0.00    +0.031 A 
ATOM      4  C   UNL     1      16.473 -21.803   5.356  1.00  0.00    +0.058 A 
ATOM      5  C   UNL     1      17.572 -22.644   5.139  1.00  0.00    +0.028 A 
ATOM      6  C   UNL     1      18.326 -22.540   3.959  1.00  0.00    +0.061 A 
ATOM      7  C   UNL     1      19.478 -23.443   3.755  1.00  0.00    +0.281 C 
ATOM      8  O   UNL     1      20.055 -23.864   4.752  1.00  0.00    -0.267 OA
ATOM      9  N   UNL     1      19.805 -23.848   2.492  1.00  0.00    -0.181 NA
ATOM     10  C   UNL     1      19.692 -23.085   1.449  1.00  0.00    +0.189 C 
ATOM     11  N   UNL     1      20.049 -23.555   0.185  1.00  0.00    -0.345 N 
ATOM     12  C   UNL     1      20.757 -24.857   0.121  1.00  0.00    +0.134 C 
ATOM     13  C   UNL     1      20.703 -25.491  -1.284  1.00  0.00    +0.106 C 
ATOM     14  N   UNL     1      21.132 -24.613  -2.390  1.00  0.00    -0.300 NA
ATOM     15  C   UNL     1      20.335 -23.372  -2.307  1.00  0.00    +0.106 C 
ATOM     16  C   UNL     1      20.368 -22.651  -0.940  1.00  0.00    +0.134 C 
ATOM     17  S   UNL     1      19.078 -21.438   1.570  1.00  0.00    -0.097 SA
ATOM     18  C   UNL     1      18.025 -21.584   2.992  1.00  0.00    +0.059 A 
ENDROOT
BRANCH   1  19
ATOM     19  C   UNL     1      16.244 -18.873   1.465  1.00  0.00    +0.022 C 
ATOM     20  C   UNL     1      15.866 -17.856   0.519  1.00  0.00    +0.384 C 
ATOM     21  O   UNL     1      15.469 -16.763   0.888  1.00  0.00    -0.236 OA
BRANCH  20  22
ATOM     22  O   UNL     1      16.013 -18.273  -0.764  1.00  0.00    -0.459 OA
ATOM     23  C   UNL     1      17.317 -18.769  -1.060  1.00  0.00    +0.283 C 
ENDBRANCH  20  22
ENDBRANCH   1  19
BRANCH   4  24
ATOM     24  C   UNL     1      15.667 -21.899   6.628  1.00  0.00    +0.416 C 
ATOM     25  F   UNL     1      16.128 -21.058   7.593  1.00  0.00    -0.166 F 
ATOM     26  F   UNL     1      15.677 -23.144   7.174  1.00  0.00    -0.166 F 
ATOM     27  F   UNL     1      14.355 -21.581   6.448  1.00  0.00    -0.166 F 
ENDBRANCH   4  24
BRANCH  14  28
ATOM     28  C   UNL     1      22.576 -24.323  -2.390  1.00  0.00    +0.088 C 
BRANCH  28  29
ATOM     29  C   UNL     1      23.106 -23.737  -3.723  1.00  0.00    +0.003 C 
ATOM     30  C   UNL     1      22.056 -23.855  -4.847  1.00  0.00    +0.005 C 
ATOM     31  C   UNL     1      23.585 -22.282  -3.524  1.00  0.00    +0.005 C 
ATOM     32  C   UNL     1      22.281 -22.820  -5.941  1.00  0.00    +0.000 C 
ATOM     33  C   UNL     1      22.527 -21.262  -3.929  1.00  0.00    +0.000 C 
ATOM     34  C   UNL     1      22.149 -21.394  -5.405  1.00  0.00    +0.000 C 
ENDBRANCH  28  29
ENDBRANCH  14  28
TORSDOF 5
ENDMDL
MODEL 3
REMARK VINA RESULT:    -8.266      5.555     10.859
REMARK INTER + INTRA:         -11.289
REMARK INTER:                 -10.654
REMARK INTRA:                  -0.635
REMARK UNBOUND:                -0.607
REMARK SMILES COC(=O)C#Cc1cc(C(F)(F)F)cc2c(=O)nc(N3CCN(CC4CCCCC4)CC3)sc12
REMARK SMILES IDX 6 1 7 2 8 3 9 4 14 5 15 6 16 7 17 8 18 9 19 10 20 11 21 12
REMARK SMILES IDX 22 13 23 14 31 15 32 16 33 17 34 18 5 19 3 20 4 21 2 22 1 23
REMARK SMILES IDX 10 24 11 25 12 26 13 27 24 28 25 29 26 30 30 31 27 32 29 33
REMARK SMILES IDX 28 34
REMARK H PARENT
ROOT
ATOM      1  C   UNL     1      22.933 -23.645  -2.653  1.00  0.00    -0.053 C 
ATOM      2  C   UNL     1      21.827 -23.061  -3.358  1.00  0.00    +0.044 A 
ATOM      3  C   UNL     1      21.855 -23.097  -4.762  1.00  0.00    +0.031 A 
ATOM      4  C   UNL     1      20.815 -22.541  -5.521  1.00  0.00    +0.058 A 
ATOM      5  C   UNL     1      19.745 -21.940  -4.846  1.00  0.00    +0.028 A 
ATOM      6  C   UNL     1      19.709 -21.921  -3.442  1.00  0.00    +0.061 A 
ATOM      7  C   UNL     1      18.565 -21.283  -2.757  1.00  0.00    +0.281 C 
ATOM      8  O   UNL     1      17.984 -20.376  -3.344  1.00  0.00    -0.267 OA
ATOM      9  N   UNL     1      18.141 -21.771  -1.554  1.00  0.00    -0.181 NA
ATOM     10  C   UNL     1      18.945 -22.245  -0.654  1.00  0.00    +0.189 C 
ATOM     11  N   UNL     1      18.450 -22.723   0.560  1.00  0.00    -0.345 N 
ATOM     12  C   UNL     1      17.020 -22.463   0.856  1.00  0.00    +0.134 C 
ATOM     13  C   UNL     1      16.468 -23.389   1.960  1.00  0.00    +0.106 C 
ATOM     14  N   UNL     1      17.258 -23.426   3.207  1.00  0.00    -0.300 NA
ATOM     15  C   UNL     1      18.650 -23.762   2.841  1.00  0.00    +0.106 C 
ATOM     16  C   UNL     1      19.292 -22.854   1.767  1.00  0.00    +0.134 C 
ATOM     17  S   UNL     1      20.686 -22.321  -0.918  1.00  0.00    -0.097 SA
ATOM     18  C   UNL     1      20.743 -22.467  -2.686  1.00  0.00    +0.059 A 
ENDROOT
BRANCH   1  19
ATOM     19  C   UNL     1      23.854 -24.133  -2.056  1.00  0.00    +0.022 C 
ATOM     20  C   UNL     1      24.950 -24.730  -1.339  1.00  0.00    +0.384 C 
ATOM     21  O   UNL     1      24.959 -25.920  -1.069  1.00  0.00    -0.236 OA
BRANCH  20  22
ATOM     22  O   UNL     1      25.912 -23.823  -1.030  1.00  0.00    -0.459 OA
ATOM     23  C   UNL     1      25.531 -22.913   0.002  1.00  0.00    +0.283 C 
ENDBRANCH  20  22
ENDBRANCH   1  19
BRANCH   4  24
ATOM     24  C   UNL     1      20.869 -22.552  -7.029  1.00  0.00    +0.416 C 
ATOM     25  F   UNL     1      20.051 -23.498  -7.566  1.00  0.00    -0.166 F 
ATOM     26  F   UNL     1      22.113 -22.804  -7.517  1.00  0.00    -0.166 F 
ATOM     27  F   UNL     1      20.485 -21.367  -7.580  1.00  0.00    -0.166 F 
ENDBRANCH   4  24
BRANCH  14  28
ATOM     28  C   UNL     1      17.195 -22.177   3.985  1.00  0.00    +0.088 C 
BRANCH  28  29
ATOM     29  C   UNL     1      15.839 -21.435   3.885  1.00  0.00    +0.003 C 
ATOM     30  C   UNL     1      14.887 -21.843   5.029  1.00  0.00    +0.005 C 
ATOM     31  C   UNL     1      16.058 -19.907   3.829  1.00  0.00    +0.005 C 
ATOM     32  C   UNL     1      13.844 -20.768   5.307  1.00  0.00    +0.000 C 
ATOM     33  C   UNL     1      15.894 -19.246   5.192  1.00  0.00    +0.000 C 
ATOM     34  C   UNL     1      14.490 -19.459   5.759  1.00  0.00    +0.000 C 
ENDBRANCH  28  29
ENDBRANCH  14  28
TORSDOF 5
ENDMDL
MODEL 4
REMARK VINA RESULT:    -8.253      3.183      5.718
REMARK INTER + INTRA:         -11.272
REMARK INTER:                 -10.643
REMARK INTRA:                  -0.629
REMARK UNBOUND:                -0.607
REMARK SMILES COC(=O)C#Cc1cc(C(F)(F)F)cc2c(=O)nc(N3CCN(CC4CCCCC4)CC3)sc12
REMARK SMILES IDX 6 1 7 2 8 3 9 4 14 5 15 6 16 7 17 8 18 9 19 10 20 11 21 12
REMARK SMILES IDX 22 13 23 14 31 15 32 16 33 17 34 18 5 19 3 20 4 21 2 22 1 23
REMARK SMILES IDX 10 24 11 25 12 26 13 27 24 28 25 29 26 30 30 31 27 32 29 33
REMARK SMILES IDX 28 34
REMARK H PARENT
ROOT
ATOM      1  C   UNL     1      17.565 -24.992   1.116  1.00  0.00    -0.053 C 
ATOM      2  C   UNL     1      17.535 -23.560   1.199  1.00  0.00    +0.044 A 
ATOM      3  C   UNL     1      17.032 -22.984   2.378  1.00  0.00    +0.031 A 
ATOM      4  C   UNL     1      16.964 -21.592   2.531  1.00  0.00    +0.058 A 
ATOM      5  C   UNL     1      17.402 -20.783   1.475  1.00  0.00    +0.028 A 
ATOM      6  C   UNL     1      17.921 -21.359   0.304  1.00  0.00    +0.061 A 
ATOM      7  C   UNL     1      18.380 -20.480  -0.792  1.00  0.00    +0.281 C 
ATOM      8  O   UNL     1      17.851 -19.378  -0.898  1.00  0.00    -0.267 OA
ATOM      9  N   UNL     1      19.420 -20.875  -1.584  1.00  0.00    -0.181 NA
ATOM     10  C   UNL     1      19.619 -22.107  -1.936  1.00  0.00    +0.189 C 
ATOM     11  N   UNL     1      20.698 -22.446  -2.753  1.00  0.00    -0.345 N 
ATOM     12  C   UNL     1      21.457 -21.331  -3.370  1.00  0.00    +0.134 C 
ATOM     13  C   UNL     1      22.852 -21.767  -3.862  1.00  0.00    +0.106 C 
ATOM     14  N   UNL     1      22.870 -22.954  -4.740  1.00  0.00    -0.300 NA
ATOM     15  C   UNL     1      22.164 -24.041  -4.031  1.00  0.00    +0.106 C 
ATOM     16  C   UNL     1      20.739 -23.698  -3.539  1.00  0.00    +0.134 C 
ATOM     17  S   UNL     1      18.557 -23.406  -1.396  1.00  0.00    -0.097 SA
ATOM     18  C   UNL     1      17.985 -22.741   0.148  1.00  0.00    +0.059 A 
ENDROOT
BRANCH   1  19
ATOM     19  C   UNL     1      17.596 -26.191   1.041  1.00  0.00    +0.022 C 
ATOM     20  C   UNL     1      17.646 -27.626   0.947  1.00  0.00    +0.384 C 
ATOM     21  O   UNL     1      18.710 -28.223   0.896  1.00  0.00    -0.236 OA
BRANCH  20  22
ATOM     22  O   UNL     1      16.407 -28.180   0.928  1.00  0.00    -0.459 OA
ATOM     23  C   UNL     1      16.171 -29.095   1.997  1.00  0.00    +0.283 C 
ENDBRANCH  20  22
ENDBRANCH   1  19
BRANCH   4  24
ATOM     24  C   UNL     1      16.391 -20.980   3.787  1.00  0.00    +0.416 C 
ATOM     25  F   UNL     1      16.137 -19.652   3.642  1.00  0.00    -0.166 F 
ATOM     26  F   UNL     1      17.217 -21.095   4.861  1.00  0.00    -0.166 F 
ATOM     27  F   UNL     1      15.212 -21.550   4.160  1.00  0.00    -0.166 F 
ENDBRANCH   4  24
BRANCH  14  28
ATOM     28  C   UNL     1      22.287 -22.715  -6.071  1.00  0.00    +0.088 C 
BRANCH  28  29
ATOM     29  C   UNL     1      23.008 -21.616  -6.891  1.00  0.00    +0.003 C 
ATOM     30  C   UNL     1      23.503 -22.158  -8.248  1.00  0.00    +0.005 C 
ATOM     31  C   UNL     1      22.098 -20.377  -7.057  1.00  0.00    +0.005 C 
ATOM     32  C   UNL     1      23.668 -21.045  -9.275  1.00  0.00    +0.000 C 
ATOM     33  C   UNL     1      21.366 -20.369  -8.393  1.00  0.00    +0.000 C 
ATOM     34  C   UNL     1      22.340 -20.350  -9.572  1.00  0.00    +0.000 C 
ENDBRANCH  28  29
ENDBRANCH  14  28
TORSDOF 5
ENDMDL
MODEL 5
REMARK VINA RESULT:    -8.117      5.102     10.768
REMARK INTER + INTRA:         -11.096
REMARK INTER:                 -11.398
REMARK INTRA:                   0.301
REMARK UNBOUND:                -0.607
REMARK SMILES COC(=O)C#Cc1cc(C(F)(F)F)cc2c(=O)nc(N3CCN(CC4CCCCC4)CC3)sc12
REMARK SMILES IDX 6 1 7 2 8 3 9 4 14 5 15 6 16 7 17 8 18 9 19 10 20 11 21 12
REMARK SMILES IDX 22 13 23 14 31 15 32 16 33 17 34 18 5 19 3 20 4 21 2 22 1 23
REMARK SMILES IDX 10 24 11 25 12 26 13 27 24 28 25 29 26 30 30 31 27 32 29 33
REMARK SMILES IDX 28 34
REMARK H PARENT
ROOT
ATOM      1  C   UNL     1      21.914 -24.589  -1.453  1.00  0.00    -0.053 C 
ATOM      2  C   UNL     1      21.107 -23.582  -2.081  1.00  0.00    +0.044 A 
ATOM      3  C   UNL     1      21.092 -23.537  -3.485  1.00  0.00    +0.031 A 
ATOM      4  C   UNL     1      20.333 -22.578  -4.170  1.00  0.00    +0.058 A 
ATOM      5  C   UNL     1      19.592 -21.655  -3.421  1.00  0.00    +0.028 A 
ATOM      6  C   UNL     1      19.593 -21.712  -2.018  1.00  0.00    +0.061 A 
ATOM      7  C   UNL     1      18.799 -20.727  -1.254  1.00  0.00    +0.281 C 
ATOM      8  O   UNL     1      18.601 -19.632  -1.769  1.00  0.00    -0.267 OA
ATOM      9  N   UNL     1      18.241 -21.088  -0.060  1.00  0.00    -0.181 NA
ATOM     10  C   UNL     1      18.817 -21.891   0.780  1.00  0.00    +0.189 C 
ATOM     11  N   UNL     1      18.200 -22.217   1.988  1.00  0.00    -0.345 N 
ATOM     12  C   UNL     1      16.987 -21.446   2.357  1.00  0.00    +0.134 C 
ATOM     13  C   UNL     1      16.142 -22.156   3.435  1.00  0.00    +0.106 C 
ATOM     14  N   UNL     1      16.880 -22.572   4.644  1.00  0.00    -0.300 NA
ATOM     15  C   UNL     1      18.026 -23.394   4.203  1.00  0.00    +0.106 C 
ATOM     16  C   UNL     1      18.948 -22.738   3.150  1.00  0.00    +0.134 C 
ATOM     17  S   UNL     1      20.388 -22.615   0.439  1.00  0.00    -0.097 SA
ATOM     18  C   UNL     1      20.350 -22.660  -1.335  1.00  0.00    +0.059 A 
ENDROOT
BRANCH   1  19
ATOM     19  C   UNL     1      22.586 -25.431  -0.921  1.00  0.00    +0.022 C 
ATOM     20  C   UNL     1      23.402 -26.432  -0.285  1.00  0.00    +0.384 C 
ATOM     21  O   UNL     1      24.483 -26.151   0.207  1.00  0.00    -0.236 OA
BRANCH  20  22
ATOM     22  O   UNL     1      22.819 -27.658  -0.311  1.00  0.00    -0.459 OA
ATOM     23  C   UNL     1      22.855 -28.282  -1.594  1.00  0.00    +0.283 C 
ENDBRANCH  20  22
ENDBRANCH   1  19
BRANCH   4  24
ATOM     24  C   UNL     1      20.349 -22.514  -5.678  1.00  0.00    +0.416 C 
ATOM     25  F   UNL     1      19.557 -23.466  -6.241  1.00  0.00    -0.166 F 
ATOM     26  F   UNL     1      21.590 -22.690  -6.206  1.00  0.00    -0.166 F 
ATOM     27  F   UNL     1      19.904 -21.321  -6.161  1.00  0.00    -0.166 F 
ENDBRANCH   4  24
BRANCH  14  28
ATOM     28  C   UNL     1      17.319 -21.447   5.486  1.00  0.00    +0.088 C 
BRANCH  28  29
ATOM     29  C   UNL     1      16.183 -20.785   6.305  1.00  0.00    +0.003 C 
ATOM     30  C   UNL     1      15.979 -19.311   5.897  1.00  0.00    +0.005 C 
ATOM     31  C   UNL     1      14.879 -21.606   6.186  1.00  0.00    +0.005 C 
ATOM     32  C   UNL     1      14.572 -18.824   6.218  1.00  0.00    +0.000 C 
ATOM     33  C   UNL     1      13.935 -21.047   5.128  1.00  0.00    +0.000 C 
ATOM     34  C   UNL     1      13.513 -19.612   5.446  1.00  0.00    +0.000 C 
ENDBRANCH  28  29
ENDBRANCH  14  28
TORSDOF 5
ENDMDL
MODEL 6
REMARK VINA RESULT:    -8.021      5.954      8.865
REMARK INTER + INTRA:         -10.972
REMARK INTER:                 -10.314
REMARK INTRA:                  -0.658
REMARK UNBOUND:                -0.607
REMARK SMILES COC(=O)C#Cc1cc(C(F)(F)F)cc2c(=O)nc(N3CCN(CC4CCCCC4)CC3)sc12
REMARK SMILES IDX 6 1 7 2 8 3 9 4 14 5 15 6 16 7 17 8 18 9 19 10 20 11 21 12
REMARK SMILES IDX 22 13 23 14 31 15 32 16 33 17 34 18 5 19 3 20 4 21 2 22 1 23
REMARK SMILES IDX 10 24 11 25 12 26 13 27 24 28 25 29 26 30 30 31 27 32 29 33
REMARK SMILES IDX 28 34
REMARK H PARENT
ROOT
ATOM      1  C   UNL     1      17.674 -21.481   2.848  1.00  0.00    -0.053 C 
ATOM      2  C   UNL     1      18.249 -21.525   1.533  1.00  0.00    +0.044 A 
ATOM      3  C   UNL     1      17.568 -20.858   0.500  1.00  0.00    +0.031 A 
ATOM      4  C   UNL     1      18.063 -20.862  -0.812  1.00  0.00    +0.058 A 
ATOM      5  C   UNL     1      19.252 -21.554  -1.074  1.00  0.00    +0.028 A 
ATOM      6  C   UNL     1      19.940 -22.205  -0.037  1.00  0.00    +0.061 A 
ATOM      7  C   UNL     1      21.195 -22.925  -0.343  1.00  0.00    +0.281 C 
ATOM      8  O   UNL     1      21.331 -23.377  -1.475  1.00  0.00    -0.267 OA
ATOM      9  N   UNL     1      22.185 -22.986   0.595  1.00  0.00    -0.181 NA
ATOM     10  C   UNL     1      21.954 -23.086   1.867  1.00  0.00    +0.189 C 
ATOM     11  N   UNL     1      23.010 -23.151   2.777  1.00  0.00    -0.345 N 
ATOM     12  C   UNL     1      24.374 -23.322   2.220  1.00  0.00    +0.134 C 
ATOM     13  C   UNL     1      25.476 -22.936   3.227  1.00  0.00    +0.106 C 
ATOM     14  N   UNL     1      25.374 -23.577   4.553  1.00  0.00    -0.300 NA
ATOM     15  C   UNL     1      24.019 -23.302   5.076  1.00  0.00    +0.106 C 
ATOM     16  C   UNL     1      22.854 -23.698   4.141  1.00  0.00    +0.134 C 
ATOM     17  S   UNL     1      20.314 -23.133   2.509  1.00  0.00    -0.097 SA
ATOM     18  C   UNL     1      19.449 -22.208   1.265  1.00  0.00    +0.059 A 
ENDROOT
BRANCH   1  19
ATOM     19  C   UNL     1      17.201 -21.446   3.951  1.00  0.00    +0.022 C 
ATOM     20  C   UNL     1      16.645 -21.401   5.278  1.00  0.00    +0.384 C 
ATOM     21  O   UNL     1      17.208 -20.804   6.182  1.00  0.00    -0.236 OA
BRANCH  20  22
ATOM     22  O   UNL     1      15.472 -22.078   5.364  1.00  0.00    -0.459 OA
ATOM     23  C   UNL     1      14.320 -21.239   5.299  1.00  0.00    +0.283 C 
ENDBRANCH  20  22
ENDBRANCH   1  19
BRANCH   4  24
ATOM     24  C   UNL     1      17.309 -20.173  -1.923  1.00  0.00    +0.416 C 
ATOM     25  F   UNL     1      17.689 -20.614  -3.152  1.00  0.00    -0.166 F 
ATOM     26  F   UNL     1      17.486 -18.824  -1.931  1.00  0.00    -0.166 F 
ATOM     27  F   UNL     1      15.964 -20.372  -1.851  1.00  0.00    -0.166 F 
ENDBRANCH   4  24
BRANCH  14  28
ATOM     28  C   UNL     1      25.659 -25.022   4.536  1.00  0.00    +0.088 C 
BRANCH  28  29
ATOM     29  C   UNL     1      25.337 -25.748   5.866  1.00  0.00    +0.003 C 
ATOM     30  C   UNL     1      25.127 -27.260   5.646  1.00  0.00    +0.005 C 
ATOM     31  C   UNL     1      26.429 -25.459   6.921  1.00  0.00    +0.005 C 
ATOM     32  C   UNL     1      25.391 -28.058   6.917  1.00  0.00    +0.000 C 
ATOM     33  C   UNL     1      27.468 -26.571   6.999  1.00  0.00    +0.000 C 
ATOM     34  C   UNL     1      26.838 -27.910   7.386  1.00  0.00    +0.000 C 
ENDBRANCH  28  29
ENDBRANCH  14  28
TORSDOF 5
ENDMDL
MODEL 7
REMARK VINA RESULT:    -8.013      3.117      5.554
REMARK INTER + INTRA:         -10.962
REMARK INTER:                 -10.331
REMARK INTRA:                  -0.631
REMARK UNBOUND:                -0.607
REMARK SMILES COC(=O)C#Cc1cc(C(F)(F)F)cc2c(=O)nc(N3CCN(CC4CCCCC4)CC3)sc12
REMARK SMILES IDX 6 1 7 2 8 3 9 4 14 5 15 6 16 7 17 8 18 9 19 10 20 11 21 12
REMARK SMILES IDX 22 13 23 14 31 15 32 16 33 17 34 18 5 19 3 20 4 21 2 22 1 23
REMARK SMILES IDX 10 24 11 25 12 26 13 27 24 28 25 29 26 30 30 31 27 32 29 33
REMARK SMILES IDX 28 34
REMARK H PARENT
ROOT
ATOM      1  C   UNL     1      20.760 -23.466   3.488  1.00  0.00    -0.053 C 
ATOM      2  C   UNL     1      19.455 -23.081   3.031  1.00  0.00    +0.044 A 
ATOM      3  C   UNL     1      18.511 -22.697   3.998  1.00  0.00    +0.031 A 
ATOM      4  C   UNL     1      17.213 -22.315   3.629  1.00  0.00    +0.058 A 
ATOM      5  C   UNL     1      16.873 -22.333   2.271  1.00  0.00    +0.028 A 
ATOM      6  C   UNL     1      17.823 -22.701   1.304  1.00  0.00    +0.061 A 
ATOM      7  C   UNL     1      17.437 -22.707  -0.123  1.00  0.00    +0.281 C 
ATOM      8  O   UNL     1      16.257 -22.908  -0.393  1.00  0.00    -0.267 OA
ATOM      9  N   UNL     1      18.367 -22.406  -1.076  1.00  0.00    -0.181 NA
ATOM     10  C   UNL     1      19.614 -22.750  -0.987  1.00  0.00    +0.189 C 
ATOM     11  N   UNL     1      20.516 -22.418  -1.999  1.00  0.00    -0.345 N 
ATOM     12  C   UNL     1      19.952 -21.864  -3.253  1.00  0.00    +0.134 C 
ATOM     13  C   UNL     1      21.008 -21.126  -4.101  1.00  0.00    +0.106 C 
ATOM     14  N   UNL     1      22.240 -21.889  -4.380  1.00  0.00    -0.300 NA
ATOM     15  C   UNL     1      22.784 -22.345  -3.083  1.00  0.00    +0.106 C 
ATOM     16  C   UNL     1      21.798 -23.130  -2.188  1.00  0.00    +0.134 C 
ATOM     17  S   UNL     1      20.232 -23.636   0.406  1.00  0.00    -0.097 SA
ATOM     18  C   UNL     1      19.111 -23.086   1.667  1.00  0.00    +0.059 A 
ENDROOT
BRANCH   1  19
ATOM     19  C   UNL     1      21.856 -23.786   3.864  1.00  0.00    +0.022 C 
ATOM     20  C   UNL     1      23.164 -24.182   4.315  1.00  0.00    +0.384 C 
ATOM     21  O   UNL     1      23.498 -25.356   4.341  1.00  0.00    -0.236 OA
BRANCH  20  22
ATOM     22  O   UNL     1      23.922 -23.117   4.681  1.00  0.00    -0.459 OA
ATOM     23  C   UNL     1      24.274 -22.263   3.594  1.00  0.00    +0.283 C 
ENDBRANCH  20  22
ENDBRANCH   1  19
BRANCH   4  24
ATOM     24  C   UNL     1      16.193 -21.935   4.676  1.00  0.00    +0.416 C 
ATOM     25  F   UNL     1      14.918 -22.118   4.241  1.00  0.00    -0.166 F 
ATOM     26  F   UNL     1      16.282 -20.634   5.059  1.00  0.00    -0.166 F 
ATOM     27  F   UNL     1      16.310 -22.669   5.817  1.00  0.00    -0.166 F 
ENDBRANCH   4  24
BRANCH  14  28
ATOM     28  C   UNL     1      22.040 -23.019  -5.304  1.00  0.00    +0.088 C 
BRANCH  28  29
ATOM     29  C   UNL     1      22.669 -22.812  -6.705  1.00  0.00    +0.003 C 
ATOM     30  C   UNL     1      21.590 -22.784  -7.808  1.00  0.00    +0.005 C 
ATOM     31  C   UNL     1      23.550 -21.543  -6.722  1.00  0.00    +0.005 C 
ATOM     32  C   UNL     1      22.064 -22.029  -9.043  1.00  0.00    +0.000 C 
ATOM     33  C   UNL     1      22.815 -20.333  -7.285  1.00  0.00    +0.000 C 
ATOM     34  C   UNL     1      22.364 -20.564  -8.728  1.00  0.00    +0.000 C 
ENDBRANCH  28  29
ENDBRANCH  14  28
TORSDOF 5
ENDMDL
MODEL 8
REMARK VINA RESULT:    -7.949      6.310      9.080
REMARK INTER + INTRA:         -10.879
REMARK INTER:                 -10.195
REMARK INTRA:                  -0.684
REMARK UNBOUND:                -0.607
REMARK SMILES COC(=O)C#Cc1cc(C(F)(F)F)cc2c(=O)nc(N3CCN(CC4CCCCC4)CC3)sc12
REMARK SMILES IDX 6 1 7 2 8 3 9 4 14 5 15 6 16 7 17 8 18 9 19 10 20 11 21 12
REMARK SMILES IDX 22 13 23 14 31 15 32 16 33 17 34 18 5 19 3 20 4 21 2 22 1 23
REMARK SMILES IDX 10 24 11 25 12 26 13 27 24 28 25 29 26 30 30 31 27 32 29 33
REMARK SMILES IDX 28 34
REMARK H PARENT
ROOT
ATOM      1  C   UNL     1      25.158 -23.544   5.566  1.00  0.00    -0.053 C 
ATOM      2  C   UNL     1      24.793 -24.897   5.259  1.00  0.00    +0.044 A 
ATOM      3  C   UNL     1      25.292 -25.914   6.090  1.00  0.00    +0.031 A 
ATOM      4  C   UNL     1      24.985 -27.261   5.851  1.00  0.00    +0.058 A 
ATOM      5  C   UNL     1      24.172 -27.574   4.754  1.00  0.00    +0.028 A 
ATOM      6  C   UNL     1      23.659 -26.556   3.934  1.00  0.00    +0.061 A 
ATOM      7  C   UNL     1      22.800 -26.917   2.786  1.00  0.00    +0.281 C 
ATOM      8  O   UNL     1      22.970 -28.017   2.272  1.00  0.00    -0.267 OA
ATOM      9  N   UNL     1      21.803 -26.070   2.396  1.00  0.00    -0.181 NA
ATOM     10  C   UNL     1      21.909 -24.778   2.439  1.00  0.00    +0.189 C 
ATOM     11  N   UNL     1      20.855 -23.965   2.019  1.00  0.00    -0.345 N 
ATOM     12  C   UNL     1      19.722 -24.628   1.329  1.00  0.00    +0.134 C 
ATOM     13  C   UNL     1      18.449 -23.758   1.314  1.00  0.00    +0.106 C 
ATOM     14  N   UNL     1      18.629 -22.382   0.810  1.00  0.00    -0.300 NA
ATOM     15  C   UNL     1      19.719 -21.762   1.592  1.00  0.00    +0.106 C 
ATOM     16  C   UNL     1      21.047 -22.554   1.624  1.00  0.00    +0.134 C 
ATOM     17  S   UNL     1      23.368 -23.989   3.034  1.00  0.00    -0.097 SA
ATOM     18  C   UNL     1      23.967 -25.218   4.167  1.00  0.00    +0.059 A 
ENDROOT
BRANCH   1  19
ATOM     19  C   UNL     1      25.458 -22.408   5.818  1.00  0.00    +0.022 C 
ATOM     20  C   UNL     1      25.808 -21.047   6.131  1.00  0.00    +0.384 C 
ATOM     21  O   UNL     1      25.507 -20.545   7.202  1.00  0.00    -0.236 OA
BRANCH  20  22
ATOM     22  O   UNL     1      26.483 -20.448   5.117  1.00  0.00    -0.459 OA
ATOM     23  C   UNL     1      27.715 -21.091   4.791  1.00  0.00    +0.283 C 
ENDBRANCH  20  22
ENDBRANCH   1  19
BRANCH   4  24
ATOM     24  C   UNL     1      25.553 -28.350   6.728  1.00  0.00    +0.416 C 
ATOM     25  F   UNL     1      24.888 -28.459   7.909  1.00  0.00    -0.166 F 
ATOM     26  F   UNL     1      26.861 -28.152   7.044  1.00  0.00    -0.166 F 
ATOM     27  F   UNL     1      25.493 -29.581   6.147  1.00  0.00    -0.166 F 
ENDBRANCH   4  24
BRANCH  14  28
ATOM     28  C   UNL     1      18.900 -22.311  -0.636  1.00  0.00    +0.088 C 
BRANCH  28  29
ATOM     29  C   UNL     1      17.847 -21.508  -1.440  1.00  0.00    +0.003 C 
ATOM     30  C   UNL     1      16.411 -21.880  -1.017  1.00  0.00    +0.005 C 
ATOM     31  C   UNL     1      18.113 -19.990  -1.319  1.00  0.00    +0.005 C 
ATOM     32  C   UNL     1      15.423 -20.762  -1.323  1.00  0.00    +0.000 C 
ATOM     33  C   UNL     1      17.251 -19.333  -0.249  1.00  0.00    +0.000 C 
ATOM     34  C   UNL     1      15.759 -19.486  -0.551  1.00  0.00    +0.000 C 
ENDBRANCH  28  29
ENDBRANCH  14  28
TORSDOF 5
ENDMDL
MODEL 9
REMARK VINA RESULT:    -7.916      6.664     10.032
REMARK INTER + INTRA:         -10.837
REMARK INTER:                 -10.178
REMARK INTRA:                  -0.659
REMARK UNBOUND:                -0.607
REMARK SMILES COC(=O)C#Cc1cc(C(F)(F)F)cc2c(=O)nc(N3CCN(CC4CCCCC4)CC3)sc12
REMARK SMILES IDX 6 1 7 2 8 3 9 4 14 5 15 6 16 7 17 8 18 9 19 10 20 11 21 12
REMARK SMILES IDX 22 13 23 14 31 15 32 16 33 17 34 18 5 19 3 20 4 21 2 22 1 23
REMARK SMILES IDX 10 24 11 25 12 26 13 27 24 28 25 29 26 30 30 31 27 32 29 33
REMARK SMILES IDX 28 34
REMARK H PARENT
ROOT
ATOM      1  C   UNL     1      18.927 -21.229  -2.768  1.00  0.00    -0.053 C 
ATOM      2  C   UNL     1      19.852 -22.043  -3.505  1.00  0.00    +0.044 A 
ATOM      3  C   UNL     1      19.780 -22.009  -4.907  1.00  0.00    +0.031 A 
ATOM      4  C   UNL     1      20.645 -22.782  -5.695  1.00  0.00    +0.058 A 
ATOM      5  C   UNL     1      21.582 -23.599  -5.051  1.00  0.00    +0.028 A 
ATOM      6  C   UNL     1      21.665 -23.618  -3.649  1.00  0.00    +0.061 A 
ATOM      7  C   UNL     1      22.667 -24.488  -2.996  1.00  0.00    +0.281 C 
ATOM      8  O   UNL     1      23.015 -25.502  -3.592  1.00  0.00    -0.267 OA
ATOM      9  N   UNL     1      23.233 -24.098  -1.816  1.00  0.00    -0.181 NA
ATOM     10  C   UNL     1      22.585 -23.456  -0.894  1.00  0.00    +0.189 C 
ATOM     11  N   UNL     1      23.218 -23.092   0.295  1.00  0.00    -0.345 N 
ATOM     12  C   UNL     1      24.567 -23.656   0.544  1.00  0.00    +0.134 C 
ATOM     13  C   UNL     1      25.348 -22.868   1.616  1.00  0.00    +0.106 C 
ATOM     14  N   UNL     1      24.632 -22.653   2.889  1.00  0.00    -0.300 NA
ATOM     15  C   UNL     1      23.335 -22.023   2.568  1.00  0.00    +0.106 C 
ATOM     16  C   UNL     1      22.470 -22.774   1.530  1.00  0.00    +0.134 C 
ATOM     17  S   UNL     1      20.894 -23.003  -1.097  1.00  0.00    -0.097 SA
ATOM     18  C   UNL     1      20.804 -22.856  -2.864  1.00  0.00    +0.059 A 
ENDROOT
BRANCH   1  19
ATOM     19  C   UNL     1      18.158 -20.548  -2.146  1.00  0.00    +0.022 C 
ATOM     20  C   UNL     1      17.244 -19.722  -1.401  1.00  0.00    +0.384 C 
ATOM     21  O   UNL     1      17.358 -18.506  -1.382  1.00  0.00    -0.236 OA
BRANCH  20  22
ATOM     22  O   UNL     1      16.295 -20.455  -0.766  1.00  0.00    -0.459 OA
ATOM     23  C   UNL     1      15.378 -21.096  -1.651  1.00  0.00    +0.283 C 
ENDBRANCH  20  22
ENDBRANCH   1  19
BRANCH   4  24
ATOM     24  C   UNL     1      20.539 -22.767  -7.201  1.00  0.00    +0.416 C 
ATOM     25  F   UNL     1      20.196 -21.541  -7.680  1.00  0.00    -0.166 F 
ATOM     26  F   UNL     1      19.607 -23.635  -7.678  1.00  0.00    -0.166 F 
ATOM     27  F   UNL     1      21.707 -23.098  -7.816  1.00  0.00    -0.166 F 
ENDBRANCH   4  24
BRANCH  14  28
ATOM     28  C   UNL     1      24.451 -23.881   3.681  1.00  0.00    +0.088 C 
BRANCH  28  29
ATOM     29  C   UNL     1      24.623 -23.683   5.208  1.00  0.00    +0.003 C 
ATOM     30  C   UNL     1      25.339 -24.887   5.855  1.00  0.00    +0.005 C 
ATOM     31  C   UNL     1      25.343 -22.349   5.505  1.00  0.00    +0.005 C 
ATOM     32  C   UNL     1      26.027 -24.501   7.158  1.00  0.00    +0.000 C 
ATOM     33  C   UNL     1      26.838 -22.536   5.738  1.00  0.00    +0.000 C 
ATOM     34  C   UNL     1      27.114 -23.451   6.932  1.00  0.00    +0.000 C 
ENDBRANCH  28  29
ENDBRANCH  14  28
TORSDOF 5
ENDMDL
