MODEL 1
REMARK VINA RESULT:   -10.079      0.000      0.000
REMARK INTER + INTRA:         -14.047
REMARK INTER:                 -13.614
REMARK INTRA:                  -0.433
REMARK UNBOUND:                -0.433
REMARK SMILES O=C(Nc1sccc1C(=O)Nc1nccc(C(F)(F)F)n1)c1ccc(C(=O)N2CCCCC2)cc1
REMARK SMILES IDX 4 1 5 2 6 3 7 4 8 5 3 6 1 7 2 8 22 10 23 11 35 12 24 13
REMARK SMILES IDX 34 14 25 15 26 16 27 17 28 18 29 19 33 20 30 21 32 22 31 23
REMARK SMILES IDX 9 24 10 25 11 26 12 28 13 29 21 30 14 31 16 32 15 33 17 34
REMARK SMILES IDX 18 35 19 36 20 37
REMARK H PARENT 3 9 11 27
ROOT
ATOM      1  C   UNL     1      14.410 -18.558   4.087  1.00  0.00    +0.108 A 
ATOM      2  S   UNL     1      13.453 -18.338   5.471  1.00  0.00    -0.126 S 
ATOM      3  C   UNL     1      12.649 -17.001   4.793  1.00  0.00    +0.068 A 
ATOM      4  C   UNL     1      13.107 -16.718   3.525  1.00  0.00    +0.028 A 
ATOM      5  C   UNL     1      14.143 -17.622   3.090  1.00  0.00    +0.075 A 
ENDROOT
BRANCH   1   6
ATOM      6  N   UNL     1      15.357 -19.569   4.010  1.00  0.00    -0.313 N 
ATOM      7  O   UNL     1      14.316 -21.368   5.079  1.00  0.00    -0.269 OA
ATOM      8  C   UNL     1      15.273 -20.850   4.518  1.00  0.00    +0.256 C 
ATOM      9  H   UNL     1      16.180 -19.314   3.464  1.00  0.00    +0.171 HD
BRANCH   8  10
ATOM     10  C   UNL     1      16.495 -21.686   4.306  1.00  0.00    +0.040 A 
ATOM     11  C   UNL     1      17.274 -21.446   3.165  1.00  0.00    +0.014 A 
ATOM     12  C   UNL     1      16.861 -22.714   5.189  1.00  0.00    +0.014 A 
ATOM     13  C   UNL     1      18.427 -22.198   2.923  1.00  0.00    +0.014 A 
ATOM     14  C   UNL     1      18.015 -23.467   4.949  1.00  0.00    +0.014 A 
ATOM     15  C   UNL     1      18.809 -23.190   3.831  1.00  0.00    +0.040 A 
BRANCH  15  16
ATOM     16  C   UNL     1      20.018 -23.997   3.547  1.00  0.00    +0.253 C 
ATOM     17  O   UNL     1      20.984 -23.860   4.294  1.00  0.00    -0.269 OA
ATOM     18  N   UNL     1      20.016 -24.846   2.431  1.00  0.00    -0.339 N 
ATOM     19  C   UNL     1      18.798 -25.540   2.003  1.00  0.00    +0.120 C 
ATOM     20  C   UNL     1      21.264 -25.557   2.162  1.00  0.00    +0.120 C 
ATOM     21  C   UNL     1      18.872 -25.960   0.539  1.00  0.00    +0.022 C 
ATOM     22  C   UNL     1      21.372 -25.987   0.703  1.00  0.00    +0.022 C 
ATOM     23  C   UNL     1      20.137 -26.764   0.257  1.00  0.00    +0.004 C 
ENDBRANCH  15  16
ENDBRANCH   8  10
ENDBRANCH   1   6
BRANCH   5  24
ATOM     24  C   UNL     1      14.873 -17.624   1.805  1.00  0.00    +0.261 C 
ATOM     25  O   UNL     1      14.990 -16.582   1.166  1.00  0.00    -0.269 OA
ATOM     26  N   UNL     1      15.377 -18.844   1.440  1.00  0.00    -0.290 N 
ATOM     27  H   UNL     1      15.270 -19.652   2.026  1.00  0.00    +0.173 HD
BRANCH  26  28
ATOM     28  C   UNL     1      16.086 -19.119   0.284  1.00  0.00    +0.230 A 
ATOM     29  N   UNL     1      16.997 -18.277  -0.206  1.00  0.00    -0.221 NA
ATOM     30  N   UNL     1      15.765 -20.290  -0.282  1.00  0.00    -0.208 NA
ATOM     31  C   UNL     1      17.627 -18.640  -1.335  1.00  0.00    +0.117 A 
ATOM     32  C   UNL     1      16.412 -20.634  -1.429  1.00  0.00    +0.149 A 
ATOM     33  C   UNL     1      17.374 -19.817  -1.995  1.00  0.00    +0.054 A 
BRANCH  32  34
ATOM     34  C   UNL     1      16.090 -21.960  -2.100  1.00  0.00    +0.433 C 
ATOM     35  F   UNL     1      15.377 -22.793  -1.289  1.00  0.00    -0.165 F 
ATOM     36  F   UNL     1      17.188 -22.669  -2.486  1.00  0.00    -0.165 F 
ATOM     37  F   UNL     1      15.331 -21.802  -3.221  1.00  0.00    -0.165 F 
ENDBRANCH  32  34
ENDBRANCH  26  28
ENDBRANCH   5  24
TORSDOF 6
ENDMDL
MODEL 2
REMARK VINA RESULT:    -9.679      5.023      7.263
REMARK INTER + INTRA:         -13.507
REMARK INTER:                 -12.606
REMARK INTRA:                  -0.901
REMARK UNBOUND:                -0.433
REMARK SMILES O=C(Nc1sccc1C(=O)Nc1nccc(C(F)(F)F)n1)c1ccc(C(=O)N2CCCCC2)cc1
REMARK SMILES IDX 4 1 5 2 6 3 7 4 8 5 3 6 1 7 2 8 22 10 23 11 35 12 24 13
REMARK SMILES IDX 34 14 25 15 26 16 27 17 28 18 29 19 33 20 30 21 32 22 31 23
REMARK SMILES IDX 9 24 10 25 11 26 12 28 13 29 21 30 14 31 16 32 15 33 17 34
REMARK SMILES IDX 18 35 19 36 20 37
REMARK H PARENT 3 9 11 27
ROOT
ATOM      1  C   UNL     1      18.349 -22.786   2.834  1.00  0.00    +0.108 A 
ATOM      2  S   UNL     1      18.764 -24.212   3.656  1.00  0.00    -0.126 S 
ATOM      3  C   UNL     1      17.820 -23.794   5.009  1.00  0.00    +0.068 A 
ATOM      4  C   UNL     1      17.199 -22.576   4.842  1.00  0.00    +0.028 A 
ATOM      5  C   UNL     1      17.496 -21.966   3.569  1.00  0.00    +0.075 A 
ENDROOT
BRANCH   1   6
ATOM      6  N   UNL     1      18.847 -22.504   1.570  1.00  0.00    -0.313 N 
ATOM      7  O   UNL     1      17.284 -23.492   0.140  1.00  0.00    -0.269 OA
ATOM      8  C   UNL     1      18.327 -22.886   0.349  1.00  0.00    +0.256 C 
ATOM      9  H   UNL     1      19.669 -21.900   1.583  1.00  0.00    +0.171 HD
BRANCH   8  10
ATOM     10  C   UNL     1      19.136 -22.457  -0.834  1.00  0.00    +0.040 A 
ATOM     11  C   UNL     1      20.491 -22.818  -0.877  1.00  0.00    +0.014 A 
ATOM     12  C   UNL     1      18.592 -21.685  -1.872  1.00  0.00    +0.014 A 
ATOM     13  C   UNL     1      21.288 -22.444  -1.963  1.00  0.00    +0.014 A 
ATOM     14  C   UNL     1      19.389 -21.312  -2.959  1.00  0.00    +0.014 A 
ATOM     15  C   UNL     1      20.728 -21.714  -3.015  1.00  0.00    +0.040 A 
BRANCH  15  16
ATOM     16  C   UNL     1      21.592 -21.302  -4.145  1.00  0.00    +0.253 C 
ATOM     17  O   UNL     1      22.501 -20.509  -3.909  1.00  0.00    -0.269 OA
ATOM     18  N   UNL     1      21.314 -21.805  -5.424  1.00  0.00    -0.339 N 
ATOM     19  C   UNL     1      20.798 -23.164  -5.614  1.00  0.00    +0.120 C 
ATOM     20  C   UNL     1      22.156 -21.303  -6.508  1.00  0.00    +0.120 C 
ATOM     21  C   UNL     1      20.090 -23.317  -6.956  1.00  0.00    +0.022 C 
ATOM     22  C   UNL     1      21.474 -21.436  -7.866  1.00  0.00    +0.022 C 
ATOM     23  C   UNL     1      20.983 -22.861  -8.106  1.00  0.00    +0.004 C 
ENDBRANCH  15  16
ENDBRANCH   8  10
ENDBRANCH   1   6
BRANCH   5  24
ATOM     24  C   UNL     1      17.021 -20.669   3.045  1.00  0.00    +0.261 C 
ATOM     25  O   UNL     1      17.724 -20.028   2.267  1.00  0.00    -0.269 OA
ATOM     26  N   UNL     1      15.782 -20.294   3.493  1.00  0.00    -0.290 N 
ATOM     27  H   UNL     1      15.247 -20.881   4.106  1.00  0.00    +0.173 HD
BRANCH  26  28
ATOM     28  C   UNL     1      15.117 -19.126   3.164  1.00  0.00    +0.230 A 
ATOM     29  N   UNL     1      15.314 -18.500   2.003  1.00  0.00    -0.221 NA
ATOM     30  N   UNL     1      14.277 -18.697   4.115  1.00  0.00    -0.208 NA
ATOM     31  C   UNL     1      14.618 -17.372   1.785  1.00  0.00    +0.117 A 
ATOM     32  C   UNL     1      13.587 -17.548   3.875  1.00  0.00    +0.149 A 
ATOM     33  C   UNL     1      13.733 -16.846   2.692  1.00  0.00    +0.054 A 
BRANCH  32  34
ATOM     34  C   UNL     1      12.612 -17.029   4.920  1.00  0.00    +0.433 C 
ATOM     35  F   UNL     1      13.205 -16.182   5.810  1.00  0.00    -0.165 F 
ATOM     36  F   UNL     1      12.029 -18.006   5.670  1.00  0.00    -0.165 F 
ATOM     37  F   UNL     1      11.588 -16.320   4.366  1.00  0.00    -0.165 F 
ENDBRANCH  32  34
ENDBRANCH  26  28
ENDBRANCH   5  24
TORSDOF 6
ENDMDL
MODEL 3
REMARK VINA RESULT:    -9.628      4.994      9.545
REMARK INTER + INTRA:         -13.438
REMARK INTER:                 -12.261
REMARK INTRA:                  -1.177
REMARK UNBOUND:                -0.433
REMARK SMILES O=C(Nc1sccc1C(=O)Nc1nccc(C(F)(F)F)n1)c1ccc(C(=O)N2CCCCC2)cc1
REMARK SMILES IDX 4 1 5 2 6 3 7 4 8 5 3 6 1 7 2 8 22 10 23 11 35 12 24 13
REMARK SMILES IDX 34 14 25 15 26 16 27 17 28 18 29 19 33 20 30 21 32 22 31 23
REMARK SMILES IDX 9 24 10 25 11 26 12 28 13 29 21 30 14 31 16 32 15 33 17 34
REMARK SMILES IDX 18 35 19 36 20 37
REMARK H PARENT 3 9 11 27
ROOT
ATOM      1  C   UNL     1      19.499 -26.396   1.379  1.00  0.00    +0.108 A 
ATOM      2  S   UNL     1      21.183 -26.319   1.184  1.00  0.00    -0.126 S 
ATOM      3  C   UNL     1      21.229 -27.807   0.360  1.00  0.00    +0.068 A 
ATOM      4  C   UNL     1      19.975 -28.363   0.238  1.00  0.00    +0.028 A 
ATOM      5  C   UNL     1      18.942 -27.550   0.831  1.00  0.00    +0.075 A 
ENDROOT
BRANCH   1   6
ATOM      6  N   UNL     1      18.796 -25.397   2.038  1.00  0.00    -0.313 N 
ATOM      7  O   UNL     1      19.117 -23.523   0.678  1.00  0.00    -0.269 OA
ATOM      8  C   UNL     1      18.679 -24.068   1.683  1.00  0.00    +0.256 C 
ATOM      9  H   UNL     1      18.278 -25.733   2.850  1.00  0.00    +0.171 HD
BRANCH   8  10
ATOM     10  C   UNL     1      17.885 -23.236   2.639  1.00  0.00    +0.040 A 
ATOM     11  C   UNL     1      18.545 -22.687   3.749  1.00  0.00    +0.014 A 
ATOM     12  C   UNL     1      16.508 -23.020   2.478  1.00  0.00    +0.014 A 
ATOM     13  C   UNL     1      17.848 -21.900   4.670  1.00  0.00    +0.014 A 
ATOM     14  C   UNL     1      15.809 -22.231   3.398  1.00  0.00    +0.014 A 
ATOM     15  C   UNL     1      16.486 -21.652   4.477  1.00  0.00    +0.040 A 
BRANCH  15  16
ATOM     16  C   UNL     1      15.755 -20.838   5.476  1.00  0.00    +0.253 C 
ATOM     17  O   UNL     1      15.824 -21.183   6.653  1.00  0.00    -0.269 OA
ATOM     18  N   UNL     1      14.999 -19.744   5.031  1.00  0.00    -0.339 N 
ATOM     19  C   UNL     1      15.434 -18.929   3.893  1.00  0.00    +0.120 C 
ATOM     20  C   UNL     1      14.242 -19.028   6.055  1.00  0.00    +0.120 C 
ATOM     21  C   UNL     1      14.270 -18.169   3.265  1.00  0.00    +0.022 C 
ATOM     22  C   UNL     1      13.065 -18.260   5.461  1.00  0.00    +0.022 C 
ATOM     23  C   UNL     1      13.510 -17.360   4.312  1.00  0.00    +0.004 C 
ENDBRANCH  15  16
ENDBRANCH   8  10
ENDBRANCH   1   6
BRANCH   5  24
ATOM     24  C   UNL     1      17.492 -27.823   0.900  1.00  0.00    +0.261 C 
ATOM     25  O   UNL     1      16.689 -26.954   0.567  1.00  0.00    -0.269 OA
ATOM     26  N   UNL     1      17.170 -29.078   1.342  1.00  0.00    -0.290 N 
ATOM     27  H   UNL     1      17.879 -29.751   1.569  1.00  0.00    +0.173 HD
BRANCH  26  28
ATOM     28  C   UNL     1      15.892 -29.580   1.508  1.00  0.00    +0.230 A 
ATOM     29  N   UNL     1      15.171 -30.038   0.484  1.00  0.00    -0.221 NA
ATOM     30  N   UNL     1      15.461 -29.553   2.776  1.00  0.00    -0.208 NA
ATOM     31  C   UNL     1      13.940 -30.502   0.755  1.00  0.00    +0.117 A 
ATOM     32  C   UNL     1      14.207 -30.023   3.027  1.00  0.00    +0.149 A 
ATOM     33  C   UNL     1      13.402 -30.519   2.018  1.00  0.00    +0.054 A 
BRANCH  32  34
ATOM     34  C   UNL     1      13.682 -30.024   4.453  1.00  0.00    +0.433 C 
ATOM     35  F   UNL     1      12.339 -29.788   4.513  1.00  0.00    -0.165 F 
ATOM     36  F   UNL     1      14.259 -29.090   5.259  1.00  0.00    -0.165 F 
ATOM     37  F   UNL     1      13.871 -31.224   5.073  1.00  0.00    -0.165 F 
ENDBRANCH  32  34
ENDBRANCH  26  28
ENDBRANCH   5  24
TORSDOF 6
ENDMDL
MODEL 4
REMARK VINA RESULT:    -9.606      4.342      6.584
REMARK INTER + INTRA:         -13.408
REMARK INTER:                 -12.426
REMARK INTRA:                  -0.982
REMARK UNBOUND:                -0.433
REMARK SMILES O=C(Nc1sccc1C(=O)Nc1nccc(C(F)(F)F)n1)c1ccc(C(=O)N2CCCCC2)cc1
REMARK SMILES IDX 4 1 5 2 6 3 7 4 8 5 3 6 1 7 2 8 22 10 23 11 35 12 24 13
REMARK SMILES IDX 34 14 25 15 26 16 27 17 28 18 29 19 33 20 30 21 32 22 31 23
REMARK SMILES IDX 9 24 10 25 11 26 12 28 13 29 21 30 14 31 16 32 15 33 17 34
REMARK SMILES IDX 18 35 19 36 20 37
REMARK H PARENT 3 9 11 27
ROOT
ATOM      1  C   UNL     1      18.261 -21.310  -0.103  1.00  0.00    +0.108 A 
ATOM      2  S   UNL     1      18.495 -21.176  -1.779  1.00  0.00    -0.126 S 
ATOM      3  C   UNL     1      17.038 -20.321  -1.987  1.00  0.00    +0.068 A 
ATOM      4  C   UNL     1      16.374 -20.144  -0.794  1.00  0.00    +0.028 A 
ATOM      5  C   UNL     1      17.076 -20.718   0.328  1.00  0.00    +0.075 A 
ENDROOT
BRANCH   1   6
ATOM      6  N   UNL     1      19.176 -21.966   0.709  1.00  0.00    -0.313 N 
ATOM      7  O   UNL     1      18.530 -24.207   0.550  1.00  0.00    -0.269 OA
ATOM      8  C   UNL     1      19.234 -23.314   1.003  1.00  0.00    +0.256 C 
ATOM      9  H   UNL     1      19.905 -21.355   1.075  1.00  0.00    +0.171 HD
BRANCH   8  10
ATOM     10  C   UNL     1      20.320 -23.697   1.957  1.00  0.00    +0.040 A 
ATOM     11  C   UNL     1      21.516 -24.208   1.431  1.00  0.00    +0.014 A 
ATOM     12  C   UNL     1      20.166 -23.593   3.348  1.00  0.00    +0.014 A 
ATOM     13  C   UNL     1      22.563 -24.577   2.280  1.00  0.00    +0.014 A 
ATOM     14  C   UNL     1      21.213 -23.961   4.199  1.00  0.00    +0.014 A 
ATOM     15  C   UNL     1      22.418 -24.428   3.662  1.00  0.00    +0.040 A 
BRANCH  15  16
ATOM     16  C   UNL     1      23.526 -24.849   4.551  1.00  0.00    +0.253 C 
ATOM     17  O   UNL     1      23.667 -26.053   4.756  1.00  0.00    -0.269 OA
ATOM     18  N   UNL     1      24.332 -23.863   5.137  1.00  0.00    -0.339 N 
ATOM     19  C   UNL     1      24.659 -22.623   4.427  1.00  0.00    +0.120 C 
ATOM     20  C   UNL     1      25.359 -24.339   6.062  1.00  0.00    +0.120 C 
ATOM     21  C   UNL     1      25.071 -21.513   5.388  1.00  0.00    +0.022 C 
ATOM     22  C   UNL     1      25.790 -23.253   7.042  1.00  0.00    +0.022 C 
ATOM     23  C   UNL     1      26.192 -21.973   6.315  1.00  0.00    +0.004 C 
ENDBRANCH  15  16
ENDBRANCH   8  10
ENDBRANCH   1   6
BRANCH   5  24
ATOM     24  C   UNL     1      16.672 -20.730   1.749  1.00  0.00    +0.261 C 
ATOM     25  O   UNL     1      16.805 -21.755   2.414  1.00  0.00    -0.269 OA
ATOM     26  N   UNL     1      16.171 -19.541   2.208  1.00  0.00    -0.290 N 
ATOM     27  H   UNL     1      16.118 -18.732   1.617  1.00  0.00    +0.173 HD
BRANCH  26  28
ATOM     28  C   UNL     1      15.714 -19.292   3.490  1.00  0.00    +0.230 A 
ATOM     29  N   UNL     1      16.367 -19.717   4.572  1.00  0.00    -0.221 NA
ATOM     30  N   UNL     1      14.569 -18.598   3.529  1.00  0.00    -0.208 NA
ATOM     31  C   UNL     1      15.834 -19.422   5.769  1.00  0.00    +0.117 A 
ATOM     32  C   UNL     1      14.044 -18.315   4.754  1.00  0.00    +0.149 A 
ATOM     33  C   UNL     1      14.667 -18.717   5.921  1.00  0.00    +0.054 A 
BRANCH  32  34
ATOM     34  C   UNL     1      12.753 -17.518   4.848  1.00  0.00    +0.433 C 
ATOM     35  F   UNL     1      12.846 -16.478   5.726  1.00  0.00    -0.165 F 
ATOM     36  F   UNL     1      11.677 -18.249   5.251  1.00  0.00    -0.165 F 
ATOM     37  F   UNL     1      12.402 -16.958   3.654  1.00  0.00    -0.165 F 
ENDBRANCH  32  34
ENDBRANCH  26  28
ENDBRANCH   5  24
TORSDOF 6
ENDMDL
MODEL 5
REMARK VINA RESULT:    -9.602      2.703      5.270
REMARK INTER + INTRA:         -13.402
REMARK INTER:                 -12.815
REMARK INTRA:                  -0.588
REMARK UNBOUND:                -0.433
REMARK SMILES O=C(Nc1sccc1C(=O)Nc1nccc(C(F)(F)F)n1)c1ccc(C(=O)N2CCCCC2)cc1
REMARK SMILES IDX 4 1 5 2 6 3 7 4 8 5 3 6 1 7 2 8 22 10 23 11 35 12 24 13
REMARK SMILES IDX 34 14 25 15 26 16 27 17 28 18 29 19 33 20 30 21 32 22 31 23
REMARK SMILES IDX 9 24 10 25 11 26 12 28 13 29 21 30 14 31 16 32 15 33 17 34
REMARK SMILES IDX 18 35 19 36 20 37
REMARK H PARENT 3 9 11 27
ROOT
ATOM      1  C   UNL     1      14.480 -18.554   3.496  1.00  0.00    +0.108 A 
ATOM      2  S   UNL     1      13.550 -17.135   3.495  1.00  0.00    -0.126 S 
ATOM      3  C   UNL     1      13.036 -17.385   5.098  1.00  0.00    +0.068 A 
ATOM      4  C   UNL     1      13.561 -18.541   5.630  1.00  0.00    +0.028 A 
ATOM      5  C   UNL     1      14.414 -19.245   4.704  1.00  0.00    +0.075 A 
ENDROOT
BRANCH   1   6
ATOM      6  N   UNL     1      15.201 -18.952   2.379  1.00  0.00    -0.313 N 
ATOM      7  O   UNL     1      15.365 -16.992   1.115  1.00  0.00    -0.269 OA
ATOM      8  C   UNL     1      15.557 -18.189   1.284  1.00  0.00    +0.256 C 
ATOM      9  H   UNL     1      15.531 -19.916   2.430  1.00  0.00    +0.171 HD
BRANCH   8  10
ATOM     10  C   UNL     1      16.296 -18.935   0.219  1.00  0.00    +0.040 A 
ATOM     11  C   UNL     1      17.195 -18.222  -0.588  1.00  0.00    +0.014 A 
ATOM     12  C   UNL     1      16.094 -20.304  -0.014  1.00  0.00    +0.014 A 
ATOM     13  C   UNL     1      17.913 -18.874  -1.595  1.00  0.00    +0.014 A 
ATOM     14  C   UNL     1      16.812 -20.958  -1.021  1.00  0.00    +0.014 A 
ATOM     15  C   UNL     1      17.739 -20.247  -1.792  1.00  0.00    +0.040 A 
BRANCH  15  16
ATOM     16  C   UNL     1      18.486 -20.918  -2.880  1.00  0.00    +0.253 C 
ATOM     17  O   UNL     1      18.251 -20.567  -4.034  1.00  0.00    -0.269 OA
ATOM     18  N   UNL     1      19.392 -21.935  -2.548  1.00  0.00    -0.339 N 
ATOM     19  C   UNL     1      20.180 -21.882  -1.313  1.00  0.00    +0.120 C 
ATOM     20  C   UNL     1      20.041 -22.609  -3.671  1.00  0.00    +0.120 C 
ATOM     21  C   UNL     1      20.673 -23.264  -0.897  1.00  0.00    +0.022 C 
ATOM     22  C   UNL     1      20.541 -23.999  -3.289  1.00  0.00    +0.022 C 
ATOM     23  C   UNL     1      21.414 -23.953  -2.038  1.00  0.00    +0.004 C 
ENDBRANCH  15  16
ENDBRANCH   8  10
ENDBRANCH   1   6
BRANCH   5  24
ATOM     24  C   UNL     1      15.140 -20.515   4.915  1.00  0.00    +0.261 C 
ATOM     25  O   UNL     1      14.760 -21.301   5.779  1.00  0.00    -0.269 OA
ATOM     26  N   UNL     1      16.211 -20.702   4.082  1.00  0.00    -0.290 N 
ATOM     27  H   UNL     1      16.450 -20.030   3.376  1.00  0.00    +0.173 HD
BRANCH  26  28
ATOM     28  C   UNL     1      17.060 -21.795   4.081  1.00  0.00    +0.230 A 
ATOM     29  N   UNL     1      17.983 -21.977   5.027  1.00  0.00    -0.221 NA
ATOM     30  N   UNL     1      16.865 -22.630   3.052  1.00  0.00    -0.208 NA
ATOM     31  C   UNL     1      18.756 -23.072   4.930  1.00  0.00    +0.117 A 
ATOM     32  C   UNL     1      17.664 -23.729   2.971  1.00  0.00    +0.149 A 
ATOM     33  C   UNL     1      18.640 -23.990   3.917  1.00  0.00    +0.054 A 
BRANCH  32  34
ATOM     34  C   UNL     1      17.470 -24.711   1.827  1.00  0.00    +0.433 C 
ATOM     35  F   UNL     1      16.434 -24.362   1.012  1.00  0.00    -0.165 F 
ATOM     36  F   UNL     1      17.213 -25.988   2.228  1.00  0.00    -0.165 F 
ATOM     37  F   UNL     1      18.565 -24.785   1.017  1.00  0.00    -0.165 F 
ENDBRANCH  32  34
ENDBRANCH  26  28
ENDBRANCH   5  24
TORSDOF 6
ENDMDL
MODEL 6
REMARK VINA RESULT:    -9.328      2.944      7.268
REMARK INTER + INTRA:         -13.033
REMARK INTER:                 -11.521
REMARK INTRA:                  -1.512
REMARK UNBOUND:                -0.433
REMARK SMILES O=C(Nc1sccc1C(=O)Nc1nccc(C(F)(F)F)n1)c1ccc(C(=O)N2CCCCC2)cc1
REMARK SMILES IDX 4 1 5 2 6 3 7 4 8 5 3 6 1 7 2 8 22 10 23 11 35 12 24 13
REMARK SMILES IDX 34 14 25 15 26 16 27 17 28 18 29 19 33 20 30 21 32 22 31 23
REMARK SMILES IDX 9 24 10 25 11 26 12 28 13 29 21 30 14 31 16 32 15 33 17 34
REMARK SMILES IDX 18 35 19 36 20 37
REMARK H PARENT 3 9 11 27
ROOT
ATOM      1  C   UNL     1      21.468 -23.403   2.533  1.00  0.00    +0.108 A 
ATOM      2  S   UNL     1      22.800 -23.720   3.537  1.00  0.00    -0.126 S 
ATOM      3  C   UNL     1      23.784 -24.153   2.218  1.00  0.00    +0.068 A 
ATOM      4  C   UNL     1      23.105 -24.065   1.023  1.00  0.00    +0.028 A 
ATOM      5  C   UNL     1      21.741 -23.625   1.185  1.00  0.00    +0.075 A 
ENDROOT
BRANCH   1   6
ATOM      6  N   UNL     1      20.251 -22.985   3.050  1.00  0.00    -0.313 N 
ATOM      7  O   UNL     1      18.856 -24.829   2.709  1.00  0.00    -0.269 OA
ATOM      8  C   UNL     1      19.057 -23.679   3.077  1.00  0.00    +0.256 C 
ATOM      9  H   UNL     1      20.293 -22.070   3.500  1.00  0.00    +0.171 HD
BRANCH   8  10
ATOM     10  C   UNL     1      17.910 -22.922   3.666  1.00  0.00    +0.040 A 
ATOM     11  C   UNL     1      18.086 -22.318   4.920  1.00  0.00    +0.014 A 
ATOM     12  C   UNL     1      16.665 -22.831   3.024  1.00  0.00    +0.014 A 
ATOM     13  C   UNL     1      17.045 -21.598   5.511  1.00  0.00    +0.014 A 
ATOM     14  C   UNL     1      15.623 -22.109   3.614  1.00  0.00    +0.014 A 
ATOM     15  C   UNL     1      15.823 -21.473   4.844  1.00  0.00    +0.040 A 
BRANCH  15  16
ATOM     16  C   UNL     1      14.720 -20.729   5.496  1.00  0.00    +0.253 C 
ATOM     17  O   UNL     1      14.262 -21.187   6.540  1.00  0.00    -0.269 OA
ATOM     18  N   UNL     1      14.234 -19.567   4.880  1.00  0.00    -0.339 N 
ATOM     19  C   UNL     1      15.124 -18.665   4.142  1.00  0.00    +0.120 C 
ATOM     20  C   UNL     1      13.097 -18.921   5.533  1.00  0.00    +0.120 C 
ATOM     21  C   UNL     1      14.354 -17.801   3.149  1.00  0.00    +0.022 C 
ATOM     22  C   UNL     1      12.302 -18.053   4.564  1.00  0.00    +0.022 C 
ATOM     23  C   UNL     1      13.205 -17.065   3.830  1.00  0.00    +0.004 C 
ENDBRANCH  15  16
ENDBRANCH   8  10
ENDBRANCH   1   6
BRANCH   5  24
ATOM     24  C   UNL     1      20.717 -23.421   0.140  1.00  0.00    +0.261 C 
ATOM     25  O   UNL     1      20.294 -24.382  -0.499  1.00  0.00    -0.269 OA
ATOM     26  N   UNL     1      20.315 -22.121  -0.016  1.00  0.00    -0.290 N 
ATOM     27  H   UNL     1      20.680 -21.387   0.561  1.00  0.00    +0.173 HD
BRANCH  26  28
ATOM     28  C   UNL     1      19.381 -21.662  -0.928  1.00  0.00    +0.230 A 
ATOM     29  N   UNL     1      19.565 -21.767  -2.246  1.00  0.00    -0.221 NA
ATOM     30  N   UNL     1      18.300 -21.109  -0.364  1.00  0.00    -0.208 NA
ATOM     31  C   UNL     1      18.597 -21.287  -3.043  1.00  0.00    +0.117 A 
ATOM     32  C   UNL     1      17.334 -20.625  -1.192  1.00  0.00    +0.149 A 
ATOM     33  C   UNL     1      17.450 -20.702  -2.568  1.00  0.00    +0.054 A 
BRANCH  32  34
ATOM     34  C   UNL     1      16.083 -20.000  -0.595  1.00  0.00    +0.433 C 
ATOM     35  F   UNL     1      16.014 -20.163   0.758  1.00  0.00    -0.165 F 
ATOM     36  F   UNL     1      14.919 -20.508  -1.089  1.00  0.00    -0.165 F 
ATOM     37  F   UNL     1      16.025 -18.654  -0.806  1.00  0.00    -0.165 F 
ENDBRANCH  32  34
ENDBRANCH  26  28
ENDBRANCH   5  24
TORSDOF 6
ENDMDL
MODEL 7
REMARK VINA RESULT:    -9.250      5.419      8.572
REMARK INTER + INTRA:         -12.928
REMARK INTER:                 -11.724
REMARK INTRA:                  -1.204
REMARK UNBOUND:                -0.433
REMARK SMILES O=C(Nc1sccc1C(=O)Nc1nccc(C(F)(F)F)n1)c1ccc(C(=O)N2CCCCC2)cc1
REMARK SMILES IDX 4 1 5 2 6 3 7 4 8 5 3 6 1 7 2 8 22 10 23 11 35 12 24 13
REMARK SMILES IDX 34 14 25 15 26 16 27 17 28 18 29 19 33 20 30 21 32 22 31 23
REMARK SMILES IDX 9 24 10 25 11 26 12 28 13 29 21 30 14 31 16 32 15 33 17 34
REMARK SMILES IDX 18 35 19 36 20 37
REMARK H PARENT 3 9 11 27
ROOT
ATOM      1  C   UNL     1      21.018 -24.194   1.710  1.00  0.00    +0.108 A 
ATOM      2  S   UNL     1      22.359 -25.082   2.252  1.00  0.00    -0.126 S 
ATOM      3  C   UNL     1      21.739 -25.192   3.833  1.00  0.00    +0.068 A 
ATOM      4  C   UNL     1      20.525 -24.554   3.951  1.00  0.00    +0.028 A 
ATOM      5  C   UNL     1      20.081 -23.959   2.714  1.00  0.00    +0.075 A 
ENDROOT
BRANCH   1   6
ATOM      6  N   UNL     1      20.919 -23.755   0.397  1.00  0.00    -0.313 N 
ATOM      7  O   UNL     1      20.581 -25.729  -0.809  1.00  0.00    -0.269 OA
ATOM      8  C   UNL     1      20.748 -24.518  -0.741  1.00  0.00    +0.256 C 
ATOM      9  H   UNL     1      20.929 -22.739   0.307  1.00  0.00    +0.171 HD
BRANCH   8  10
ATOM     10  C   UNL     1      20.728 -23.738  -2.017  1.00  0.00    +0.040 A 
ATOM     11  C   UNL     1      20.492 -22.357  -1.947  1.00  0.00    +0.014 A 
ATOM     12  C   UNL     1      20.903 -24.346  -3.269  1.00  0.00    +0.014 A 
ATOM     13  C   UNL     1      20.466 -21.583  -3.111  1.00  0.00    +0.014 A 
ATOM     14  C   UNL     1      20.879 -23.573  -4.434  1.00  0.00    +0.014 A 
ATOM     15  C   UNL     1      20.686 -22.190  -4.350  1.00  0.00    +0.040 A 
BRANCH  15  16
ATOM     16  C   UNL     1      20.630 -21.361  -5.577  1.00  0.00    +0.253 C 
ATOM     17  O   UNL     1      19.631 -20.666  -5.750  1.00  0.00    -0.269 OA
ATOM     18  N   UNL     1      21.692 -21.433  -6.489  1.00  0.00    -0.339 N 
ATOM     19  C   UNL     1      23.074 -21.625  -6.037  1.00  0.00    +0.120 C 
ATOM     20  C   UNL     1      21.542 -20.649  -7.713  1.00  0.00    +0.120 C 
ATOM     21  C   UNL     1      23.957 -22.188  -7.146  1.00  0.00    +0.022 C 
ATOM     22  C   UNL     1      22.410 -21.190  -8.845  1.00  0.00    +0.022 C 
ATOM     23  C   UNL     1      23.865 -21.340  -8.411  1.00  0.00    +0.004 C 
ENDBRANCH  15  16
ENDBRANCH   8  10
ENDBRANCH   1   6
BRANCH   5  24
ATOM     24  C   UNL     1      18.843 -23.194   2.460  1.00  0.00    +0.261 C 
ATOM     25  O   UNL     1      18.149 -23.460   1.481  1.00  0.00    -0.269 OA
ATOM     26  N   UNL     1      18.574 -22.224   3.388  1.00  0.00    -0.290 N 
ATOM     27  H   UNL     1      19.170 -22.079   4.183  1.00  0.00    +0.173 HD
BRANCH  26  28
ATOM     28  C   UNL     1      17.490 -21.365   3.376  1.00  0.00    +0.230 A 
ATOM     29  N   UNL     1      17.433 -20.306   2.567  1.00  0.00    -0.221 NA
ATOM     30  N   UNL     1      16.527 -21.697   4.246  1.00  0.00    -0.208 NA
ATOM     31  C   UNL     1      16.335 -19.536   2.637  1.00  0.00    +0.117 A 
ATOM     32  C   UNL     1      15.426 -20.899   4.304  1.00  0.00    +0.149 A 
ATOM     33  C   UNL     1      15.291 -19.787   3.493  1.00  0.00    +0.054 A 
BRANCH  32  34
ATOM     34  C   UNL     1      14.301 -21.245   5.267  1.00  0.00    +0.433 C 
ATOM     35  F   UNL     1      14.765 -21.633   6.490  1.00  0.00    -0.165 F 
ATOM     36  F   UNL     1      13.493 -22.254   4.838  1.00  0.00    -0.165 F 
ATOM     37  F   UNL     1      13.480 -20.182   5.507  1.00  0.00    -0.165 F 
ENDBRANCH  32  34
ENDBRANCH  26  28
ENDBRANCH   5  24
TORSDOF 6
ENDMDL
MODEL 8
REMARK VINA RESULT:    -9.138      3.100      7.698
REMARK INTER + INTRA:         -12.776
REMARK INTER:                 -12.126
REMARK INTRA:                  -0.649
REMARK UNBOUND:                -0.433
REMARK SMILES O=C(Nc1sccc1C(=O)Nc1nccc(C(F)(F)F)n1)c1ccc(C(=O)N2CCCCC2)cc1
REMARK SMILES IDX 4 1 5 2 6 3 7 4 8 5 3 6 1 7 2 8 22 10 23 11 35 12 24 13
REMARK SMILES IDX 34 14 25 15 26 16 27 17 28 18 29 19 33 20 30 21 32 22 31 23
REMARK SMILES IDX 9 24 10 25 11 26 12 28 13 29 21 30 14 31 16 32 15 33 17 34
REMARK SMILES IDX 18 35 19 36 20 37
REMARK H PARENT 3 9 11 27
ROOT
ATOM      1  C   UNL     1      21.707 -23.725   2.929  1.00  0.00    +0.108 A 
ATOM      2  S   UNL     1      22.656 -23.998   4.310  1.00  0.00    -0.126 S 
ATOM      3  C   UNL     1      23.731 -25.007   3.461  1.00  0.00    +0.068 A 
ATOM      4  C   UNL     1      23.370 -25.142   2.139  1.00  0.00    +0.028 A 
ATOM      5  C   UNL     1      22.181 -24.396   1.804  1.00  0.00    +0.075 A 
ENDROOT
BRANCH   1   6
ATOM      6  N   UNL     1      20.576 -22.923   2.971  1.00  0.00    -0.313 N 
ATOM      7  O   UNL     1      18.907 -24.379   3.719  1.00  0.00    -0.269 OA
ATOM      8  C   UNL     1      19.289 -23.288   3.316  1.00  0.00    +0.256 C 
ATOM      9  H   UNL     1      20.765 -21.942   2.763  1.00  0.00    +0.171 HD
BRANCH   8  10
ATOM     10  C   UNL     1      18.281 -22.189   3.212  1.00  0.00    +0.040 A 
ATOM     11  C   UNL     1      18.312 -21.363   2.078  1.00  0.00    +0.014 A 
ATOM     12  C   UNL     1      17.337 -21.941   4.221  1.00  0.00    +0.014 A 
ATOM     13  C   UNL     1      17.389 -20.324   1.933  1.00  0.00    +0.014 A 
ATOM     14  C   UNL     1      16.411 -20.903   4.076  1.00  0.00    +0.014 A 
ATOM     15  C   UNL     1      16.423 -20.113   2.921  1.00  0.00    +0.040 A 
BRANCH  15  16
ATOM     16  C   UNL     1      15.468 -18.991   2.765  1.00  0.00    +0.253 C 
ATOM     17  O   UNL     1      15.482 -18.374   1.703  1.00  0.00    -0.269 OA
ATOM     18  N   UNL     1      14.627 -18.669   3.839  1.00  0.00    -0.339 N 
ATOM     19  C   UNL     1      14.092 -19.705   4.728  1.00  0.00    +0.120 C 
ATOM     20  C   UNL     1      13.762 -17.506   3.651  1.00  0.00    +0.120 C 
ATOM     21  C   UNL     1      13.666 -19.129   6.075  1.00  0.00    +0.022 C 
ATOM     22  C   UNL     1      13.321 -16.902   4.980  1.00  0.00    +0.022 C 
ATOM     23  C   UNL     1      12.707 -17.957   5.896  1.00  0.00    +0.004 C 
ENDBRANCH  15  16
ENDBRANCH   8  10
ENDBRANCH   1   6
BRANCH   5  24
ATOM     24  C   UNL     1      21.497 -24.306   0.498  1.00  0.00    +0.261 C 
ATOM     25  O   UNL     1      20.922 -25.290   0.039  1.00  0.00    -0.269 OA
ATOM     26  N   UNL     1      21.568 -23.074  -0.097  1.00  0.00    -0.290 N 
ATOM     27  H   UNL     1      22.030 -22.303   0.349  1.00  0.00    +0.173 HD
BRANCH  26  28
ATOM     28  C   UNL     1      21.023 -22.730  -1.321  1.00  0.00    +0.230 A 
ATOM     29  N   UNL     1      21.611 -23.051  -2.475  1.00  0.00    -0.221 NA
ATOM     30  N   UNL     1      19.872 -22.050  -1.229  1.00  0.00    -0.208 NA
ATOM     31  C   UNL     1      20.999 -22.666  -3.607  1.00  0.00    +0.117 A 
ATOM     32  C   UNL     1      19.273 -21.666  -2.390  1.00  0.00    +0.149 A 
ATOM     33  C   UNL     1      19.818 -21.967  -3.624  1.00  0.00    +0.054 A 
BRANCH  32  34
ATOM     34  C   UNL     1      17.958 -20.904  -2.334  1.00  0.00    +0.433 C 
ATOM     35  F   UNL     1      18.019 -19.820  -1.508  1.00  0.00    -0.165 F 
ATOM     36  F   UNL     1      16.904 -21.647  -1.894  1.00  0.00    -0.165 F 
ATOM     37  F   UNL     1      17.591 -20.416  -3.553  1.00  0.00    -0.165 F 
ENDBRANCH  32  34
ENDBRANCH  26  28
ENDBRANCH   5  24
TORSDOF 6
ENDMDL
MODEL 9
REMARK VINA RESULT:    -9.095      3.974      8.536
REMARK INTER + INTRA:         -12.718
REMARK INTER:                 -11.824
REMARK INTRA:                  -0.894
REMARK UNBOUND:                -0.433
REMARK SMILES O=C(Nc1sccc1C(=O)Nc1nccc(C(F)(F)F)n1)c1ccc(C(=O)N2CCCCC2)cc1
REMARK SMILES IDX 4 1 5 2 6 3 7 4 8 5 3 6 1 7 2 8 22 10 23 11 35 12 24 13
REMARK SMILES IDX 34 14 25 15 26 16 27 17 28 18 29 19 33 20 30 21 32 22 31 23
REMARK SMILES IDX 9 24 10 25 11 26 12 28 13 29 21 30 14 31 16 32 15 33 17 34
REMARK SMILES IDX 18 35 19 36 20 37
REMARK H PARENT 3 9 11 27
ROOT
ATOM      1  C   UNL     1      20.154 -22.806  -2.728  1.00  0.00    +0.108 A 
ATOM      2  S   UNL     1      19.863 -22.822  -4.400  1.00  0.00    -0.126 S 
ATOM      3  C   UNL     1      21.241 -23.771  -4.705  1.00  0.00    +0.068 A 
ATOM      4  C   UNL     1      21.924 -24.070  -3.547  1.00  0.00    +0.028 A 
ATOM      5  C   UNL     1      21.301 -23.512  -2.371  1.00  0.00    +0.075 A 
ENDROOT
BRANCH   1   6
ATOM      6  N   UNL     1      19.318 -22.132  -1.850  1.00  0.00    -0.313 N 
ATOM      7  O   UNL     1      18.370 -20.461  -3.182  1.00  0.00    -0.269 OA
ATOM      8  C   UNL     1      18.533 -21.025  -2.107  1.00  0.00    +0.256 C 
ATOM      9  H   UNL     1      19.264 -22.564  -0.927  1.00  0.00    +0.171 HD
BRANCH   8  10
ATOM     10  C   UNL     1      17.779 -20.507  -0.924  1.00  0.00    +0.040 A 
ATOM     11  C   UNL     1      16.525 -19.918  -1.142  1.00  0.00    +0.014 A 
ATOM     12  C   UNL     1      18.300 -20.561   0.377  1.00  0.00    +0.014 A 
ATOM     13  C   UNL     1      15.780 -19.421  -0.069  1.00  0.00    +0.014 A 
ATOM     14  C   UNL     1      17.555 -20.066   1.452  1.00  0.00    +0.014 A 
ATOM     15  C   UNL     1      16.286 -19.520   1.230  1.00  0.00    +0.040 A 
BRANCH  15  16
ATOM     16  C   UNL     1      15.497 -18.965   2.354  1.00  0.00    +0.253 C 
ATOM     17  O   UNL     1      14.829 -17.956   2.138  1.00  0.00    -0.269 OA
ATOM     18  N   UNL     1      15.574 -19.591   3.606  1.00  0.00    -0.339 N 
ATOM     19  C   UNL     1      15.723 -21.044   3.725  1.00  0.00    +0.120 C 
ATOM     20  C   UNL     1      14.832 -18.952   4.690  1.00  0.00    +0.120 C 
ATOM     21  C   UNL     1      16.301 -21.444   5.078  1.00  0.00    +0.022 C 
ATOM     22  C   UNL     1      15.389 -19.327   6.060  1.00  0.00    +0.022 C 
ATOM     23  C   UNL     1      15.494 -20.840   6.224  1.00  0.00    +0.004 C 
ENDBRANCH  15  16
ENDBRANCH   8  10
ENDBRANCH   1   6
BRANCH   5  24
ATOM     24  C   UNL     1      21.746 -23.615  -0.966  1.00  0.00    +0.261 C 
ATOM     25  O   UNL     1      22.790 -23.071  -0.613  1.00  0.00    -0.269 OA
ATOM     26  N   UNL     1      20.908 -24.333  -0.156  1.00  0.00    -0.290 N 
ATOM     27  H   UNL     1      20.053 -24.727  -0.503  1.00  0.00    +0.173 HD
BRANCH  26  28
ATOM     28  C   UNL     1      21.099 -24.588   1.191  1.00  0.00    +0.230 A 
ATOM     29  N   UNL     1      22.046 -25.419   1.629  1.00  0.00    -0.221 NA
ATOM     30  N   UNL     1      20.248 -23.931   1.991  1.00  0.00    -0.208 NA
ATOM     31  C   UNL     1      22.144 -25.596   2.957  1.00  0.00    +0.117 A 
ATOM     32  C   UNL     1      20.363 -24.130   3.333  1.00  0.00    +0.149 A 
ATOM     33  C   UNL     1      21.324 -24.972   3.863  1.00  0.00    +0.054 A 
BRANCH  32  34
ATOM     34  C   UNL     1      19.428 -23.395   4.280  1.00  0.00    +0.433 C 
ATOM     35  F   UNL     1      18.936 -22.245   3.736  1.00  0.00    -0.165 F 
ATOM     36  F   UNL     1      20.005 -23.031   5.459  1.00  0.00    -0.165 F 
ATOM     37  F   UNL     1      18.335 -24.141   4.611  1.00  0.00    -0.165 F 
ENDBRANCH  32  34
ENDBRANCH  26  28
ENDBRANCH   5  24
TORSDOF 6
ENDMDL
