MODEL 1
REMARK VINA RESULT:    -8.437      0.000      0.000
REMARK INTER + INTRA:         -10.575
REMARK INTER:                  -9.917
REMARK INTRA:                  -0.658
REMARK UNBOUND:                -0.658
REMARK SMILES C[C@H]1COC2(CCN(c3nc(=O)c4cc(C(F)(F)F)cc(NC(=O)C(C)(C)Br)c4s3)CC2)O1
REMARK SMILES IDX 1 1 2 2 3 3 4 4 5 5 6 6 7 7 8 8 9 9 10 10 11 11 12 12 13 13
REMARK SMILES IDX 14 14 15 15 20 16 21 17 29 18 30 19 31 20 32 21 33 22 22 23
REMARK SMILES IDX 23 24 24 25 25 27 26 28 27 29 28 30 16 31 17 32 18 33 19 34
REMARK H PARENT 22 26
ROOT
ATOM      1  C   UNL     1      20.506 -23.197  -7.344  1.00  0.00    +0.041 C 
ATOM      2  C   UNL     1      20.679 -22.400  -6.070  1.00  0.00    +0.144 C 
ATOM      3  C   UNL     1      19.886 -21.117  -6.037  1.00  0.00    +0.195 C 
ATOM      4  O   UNL     1      19.803 -20.827  -4.640  1.00  0.00    -0.347 OA
ATOM      5  C   UNL     1      19.787 -22.114  -3.996  1.00  0.00    +0.172 C 
ATOM      6  C   UNL     1      20.786 -22.111  -2.844  1.00  0.00    +0.087 C 
ATOM      7  C   UNL     1      20.336 -21.167  -1.737  1.00  0.00    +0.124 C 
ATOM      8  N   UNL     1      18.983 -21.529  -1.272  1.00  0.00    -0.348 N 
ATOM      9  C   UNL     1      18.551 -21.150  -0.001  1.00  0.00    +0.189 C 
ATOM     10  N   UNL     1      17.386 -20.617   0.184  1.00  0.00    -0.181 NA
ATOM     11  C   UNL     1      16.925 -20.231   1.411  1.00  0.00    +0.281 C 
ATOM     12  O   UNL     1      16.158 -19.285   1.557  1.00  0.00    -0.267 OA
ATOM     13  C   UNL     1      17.274 -21.023   2.609  1.00  0.00    +0.062 A 
ATOM     14  C   UNL     1      16.372 -21.082   3.679  1.00  0.00    +0.028 A 
ATOM     15  C   UNL     1      16.679 -21.831   4.821  1.00  0.00    +0.058 A 
ATOM     16  C   UNL     1      17.915 -22.496   4.882  1.00  0.00    +0.040 A 
ATOM     17  C   UNL     1      18.833 -22.423   3.825  1.00  0.00    +0.060 A 
ATOM     18  C   UNL     1      18.501 -21.678   2.672  1.00  0.00    +0.067 A 
ATOM     19  S   UNL     1      19.654 -21.499   1.328  1.00  0.00    -0.096 SA
ATOM     20  C   UNL     1      17.988 -21.479  -2.364  1.00  0.00    +0.124 C 
ATOM     21  C   UNL     1      18.384 -22.426  -3.488  1.00  0.00    +0.087 C 
ATOM     22  O   UNL     1      20.165 -23.124  -4.949  1.00  0.00    -0.344 OA
ENDROOT
BRANCH  17  23
ATOM     23  N   UNL     1      20.088 -23.075   3.854  1.00  0.00    -0.324 N 
ATOM     24  C   UNL     1      20.432 -24.320   3.349  1.00  0.00    +0.240 C 
ATOM     25  O   UNL     1      19.655 -25.085   2.785  1.00  0.00    -0.273 OA
ATOM     26  H   UNL     1      20.797 -22.606   4.413  1.00  0.00    +0.170 HD
BRANCH  24  27
ATOM     27  C   UNL     1      21.928 -24.664   3.497  1.00  0.00    +0.099 C 
ATOM     28  C   UNL     1      22.141 -26.168   3.650  1.00  0.00    +0.034 C 
ATOM     29  C   UNL     1      22.573 -23.900   4.651  1.00  0.00    +0.034 C 
ATOM     30 Br   UNL     1      22.820 -24.084   1.832  1.00  0.00    -0.075 Br
ENDBRANCH  24  27
ENDBRANCH  17  23
BRANCH  15  31
ATOM     31  C   UNL     1      15.721 -21.899   5.987  1.00  0.00    +0.416 C 
ATOM     32  F   UNL     1      15.937 -22.989   6.771  1.00  0.00    -0.166 F 
ATOM     33  F   UNL     1      14.418 -21.961   5.599  1.00  0.00    -0.166 F 
ATOM     34  F   UNL     1      15.809 -20.819   6.813  1.00  0.00    -0.166 F 
ENDBRANCH  15  31
TORSDOF 3
ENDMDL
MODEL 2
REMARK VINA RESULT:    -8.180      3.440      5.676
REMARK INTER + INTRA:         -10.273
REMARK INTER:                  -9.744
REMARK INTRA:                  -0.529
REMARK UNBOUND:                -0.658
REMARK SMILES C[C@H]1COC2(CCN(c3nc(=O)c4cc(C(F)(F)F)cc(NC(=O)C(C)(C)Br)c4s3)CC2)O1
REMARK SMILES IDX 1 1 2 2 3 3 4 4 5 5 6 6 7 7 8 8 9 9 10 10 11 11 12 12 13 13
REMARK SMILES IDX 14 14 15 15 20 16 21 17 29 18 30 19 31 20 32 21 33 22 22 23
REMARK SMILES IDX 23 24 24 25 25 27 26 28 27 29 28 30 16 31 17 32 18 33 19 34
REMARK H PARENT 22 26
ROOT
ATOM      1  C   UNL     1      23.362 -20.084  -9.555  1.00  0.00    +0.041 C 
ATOM      2  C   UNL     1      22.417 -20.860  -8.664  1.00  0.00    +0.144 C 
ATOM      3  C   UNL     1      22.715 -22.337  -8.593  1.00  0.00    +0.195 C 
ATOM      4  O   UNL     1      22.073 -22.736  -7.380  1.00  0.00    -0.347 OA
ATOM      5  C   UNL     1      22.156 -21.583  -6.522  1.00  0.00    +0.172 C 
ATOM      6  C   UNL     1      20.789 -21.321  -5.900  1.00  0.00    +0.087 C 
ATOM      7  C   UNL     1      20.406 -22.438  -4.938  1.00  0.00    +0.124 C 
ATOM      8  N   UNL     1      21.443 -22.602  -3.902  1.00  0.00    -0.348 N 
ATOM      9  C   UNL     1      21.129 -23.196  -2.680  1.00  0.00    +0.189 C 
ATOM     10  N   UNL     1      21.883 -24.111  -2.162  1.00  0.00    -0.181 NA
ATOM     11  C   UNL     1      21.612 -24.719  -0.968  1.00  0.00    +0.281 C 
ATOM     12  O   UNL     1      21.932 -25.880  -0.734  1.00  0.00    -0.267 OA
ATOM     13  C   UNL     1      20.997 -23.942   0.128  1.00  0.00    +0.062 A 
ATOM     14  C   UNL     1      21.294 -24.275   1.456  1.00  0.00    +0.028 A 
ATOM     15  C   UNL     1      20.728 -23.549   2.510  1.00  0.00    +0.058 A 
ATOM     16  C   UNL     1      19.839 -22.502   2.210  1.00  0.00    +0.040 A 
ATOM     17  C   UNL     1      19.519 -22.178   0.886  1.00  0.00    +0.060 A 
ATOM     18  C   UNL     1      20.112 -22.908  -0.168  1.00  0.00    +0.067 A 
ATOM     19  S   UNL     1      19.692 -22.581  -1.866  1.00  0.00    -0.096 SA
ATOM     20  C   UNL     1      22.766 -22.915  -4.484  1.00  0.00    +0.124 C 
ATOM     21  C   UNL     1      23.202 -21.813  -5.437  1.00  0.00    +0.087 C 
ATOM     22  O   UNL     1      22.549 -20.440  -7.303  1.00  0.00    -0.344 OA
ENDROOT
BRANCH  17  23
ATOM     23  N   UNL     1      18.625 -21.135   0.546  1.00  0.00    -0.324 N 
ATOM     24  C   UNL     1      17.283 -21.216   0.210  1.00  0.00    +0.240 C 
ATOM     25  O   UNL     1      16.641 -22.261   0.141  1.00  0.00    -0.273 OA
ATOM     26  H   UNL     1      19.061 -20.222   0.434  1.00  0.00    +0.170 HD
BRANCH  24  27
ATOM     27  C   UNL     1      16.611 -19.848  -0.021  1.00  0.00    +0.099 C 
ATOM     28  C   UNL     1      15.310 -19.992  -0.808  1.00  0.00    +0.034 C 
ATOM     29  C   UNL     1      17.555 -18.862  -0.704  1.00  0.00    +0.034 C 
ATOM     30 Br   UNL     1      16.173 -19.112   1.760  1.00  0.00    -0.075 Br
ENDBRANCH  24  27
ENDBRANCH  17  23
BRANCH  15  31
ATOM     31  C   UNL     1      21.031 -23.900   3.948  1.00  0.00    +0.416 C 
ATOM     32  F   UNL     1      21.088 -25.243   4.152  1.00  0.00    -0.166 F 
ATOM     33  F   UNL     1      20.099 -23.421   4.817  1.00  0.00    -0.166 F 
ATOM     34  F   UNL     1      22.225 -23.403   4.378  1.00  0.00    -0.166 F 
ENDBRANCH  15  31
TORSDOF 3
ENDMDL
MODEL 3
REMARK VINA RESULT:    -8.009      3.562      5.844
REMARK INTER + INTRA:         -10.073
REMARK INTER:                  -9.494
REMARK INTRA:                  -0.579
REMARK UNBOUND:                -0.658
REMARK SMILES C[C@H]1COC2(CCN(c3nc(=O)c4cc(C(F)(F)F)cc(NC(=O)C(C)(C)Br)c4s3)CC2)O1
REMARK SMILES IDX 1 1 2 2 3 3 4 4 5 5 6 6 7 7 8 8 9 9 10 10 11 11 12 12 13 13
REMARK SMILES IDX 14 14 15 15 20 16 21 17 29 18 30 19 31 20 32 21 33 22 22 23
REMARK SMILES IDX 23 24 24 25 25 27 26 28 27 29 28 30 16 31 17 32 18 33 19 34
REMARK H PARENT 22 26
ROOT
ATOM      1  C   UNL     1      28.037 -21.949  -1.628  1.00  0.00    +0.041 C 
ATOM      2  C   UNL     1      26.715 -22.657  -1.437  1.00  0.00    +0.144 C 
ATOM      3  C   UNL     1      26.764 -23.791  -0.443  1.00  0.00    +0.195 C 
ATOM      4  O   UNL     1      25.394 -23.950  -0.069  1.00  0.00    -0.347 OA
ATOM      5  C   UNL     1      24.830 -22.629  -0.160  1.00  0.00    +0.172 C 
ATOM      6  C   UNL     1      23.515 -22.697  -0.927  1.00  0.00    +0.087 C 
ATOM      7  C   UNL     1      22.463 -23.464  -0.137  1.00  0.00    +0.124 C 
ATOM      8  N   UNL     1      22.277 -22.856   1.195  1.00  0.00    -0.348 N 
ATOM      9  C   UNL     1      21.091 -23.057   1.900  1.00  0.00    +0.189 C 
ATOM     10  N   UNL     1      21.098 -23.382   3.153  1.00  0.00    -0.181 NA
ATOM     11  C   UNL     1      19.960 -23.589   3.881  1.00  0.00    +0.281 C 
ATOM     12  O   UNL     1      19.912 -24.386   4.812  1.00  0.00    -0.267 OA
ATOM     13  C   UNL     1      18.760 -22.769   3.616  1.00  0.00    +0.062 A 
ATOM     14  C   UNL     1      17.880 -22.481   4.668  1.00  0.00    +0.028 A 
ATOM     15  C   UNL     1      16.741 -21.700   4.442  1.00  0.00    +0.058 A 
ATOM     16  C   UNL     1      16.486 -21.236   3.139  1.00  0.00    +0.040 A 
ATOM     17  C   UNL     1      17.348 -21.540   2.078  1.00  0.00    +0.060 A 
ATOM     18  C   UNL     1      18.504 -22.313   2.325  1.00  0.00    +0.067 A 
ATOM     19  S   UNL     1      19.599 -22.782   1.003  1.00  0.00    -0.096 SA
ATOM     20  C   UNL     1      23.531 -22.835   1.977  1.00  0.00    +0.124 C 
ATOM     21  C   UNL     1      24.608 -22.058   1.235  1.00  0.00    +0.087 C 
ATOM     22  O   UNL     1      25.747 -21.772  -0.866  1.00  0.00    -0.344 OA
ENDROOT
BRANCH  17  23
ATOM     23  N   UNL     1      17.121 -21.095   0.754  1.00  0.00    -0.324 N 
ATOM     24  C   UNL     1      16.516 -21.768  -0.296  1.00  0.00    +0.240 C 
ATOM     25  O   UNL     1      16.076 -22.913  -0.233  1.00  0.00    -0.273 OA
ATOM     26  H   UNL     1      17.557 -20.204   0.525  1.00  0.00    +0.170 HD
BRANCH  24  27
ATOM     27  C   UNL     1      16.373 -20.926  -1.580  1.00  0.00    +0.099 C 
ATOM     28  C   UNL     1      16.130 -19.453  -1.256  1.00  0.00    +0.034 C 
ATOM     29  C   UNL     1      15.279 -21.471  -2.495  1.00  0.00    +0.034 C 
ATOM     30 Br   UNL     1      18.086 -21.066  -2.555  1.00  0.00    -0.075 Br
ENDBRANCH  24  27
ENDBRANCH  17  23
BRANCH  15  31
ATOM     31  C   UNL     1      15.778 -21.387   5.562  1.00  0.00    +0.416 C 
ATOM     32  F   UNL     1      14.487 -21.336   5.135  1.00  0.00    -0.166 F 
ATOM     33  F   UNL     1      16.030 -20.188   6.156  1.00  0.00    -0.166 F 
ATOM     34  F   UNL     1      15.807 -22.309   6.564  1.00  0.00    -0.166 F 
ENDBRANCH  15  31
TORSDOF 3
ENDMDL
MODEL 4
REMARK VINA RESULT:    -7.853      3.758      6.917
REMARK INTER + INTRA:          -9.888
REMARK INTER:                  -9.490
REMARK INTRA:                  -0.398
REMARK UNBOUND:                -0.658
REMARK SMILES C[C@H]1COC2(CCN(c3nc(=O)c4cc(C(F)(F)F)cc(NC(=O)C(C)(C)Br)c4s3)CC2)O1
REMARK SMILES IDX 1 1 2 2 3 3 4 4 5 5 6 6 7 7 8 8 9 9 10 10 11 11 12 12 13 13
REMARK SMILES IDX 14 14 15 15 20 16 21 17 29 18 30 19 31 20 32 21 33 22 22 23
REMARK SMILES IDX 23 24 24 25 25 27 26 28 27 29 28 30 16 31 17 32 18 33 19 34
REMARK H PARENT 22 26
ROOT
ATOM      1  C   UNL     1      25.835 -26.071   2.837  1.00  0.00    +0.041 C 
ATOM      2  C   UNL     1      24.330 -26.083   2.677  1.00  0.00    +0.144 C 
ATOM      3  C   UNL     1      23.597 -26.746   3.817  1.00  0.00    +0.195 C 
ATOM      4  O   UNL     1      22.278 -26.209   3.705  1.00  0.00    -0.347 OA
ATOM      5  C   UNL     1      22.462 -24.883   3.176  1.00  0.00    +0.172 C 
ATOM      6  C   UNL     1      21.492 -24.665   2.020  1.00  0.00    +0.087 C 
ATOM      7  C   UNL     1      20.052 -24.640   2.517  1.00  0.00    +0.124 C 
ATOM      8  N   UNL     1      19.886 -23.608   3.558  1.00  0.00    -0.348 N 
ATOM      9  C   UNL     1      18.626 -23.072   3.823  1.00  0.00    +0.189 C 
ATOM     10  N   UNL     1      18.190 -22.941   5.035  1.00  0.00    -0.181 NA
ATOM     11  C   UNL     1      16.963 -22.422   5.338  1.00  0.00    +0.281 C 
ATOM     12  O   UNL     1      16.324 -22.778   6.323  1.00  0.00    -0.267 OA
ATOM     13  C   UNL     1      16.406 -21.326   4.519  1.00  0.00    +0.062 A 
ATOM     14  C   UNL     1      15.563 -20.381   5.118  1.00  0.00    +0.028 A 
ATOM     15  C   UNL     1      15.030 -19.330   4.363  1.00  0.00    +0.058 A 
ATOM     16  C   UNL     1      15.335 -19.259   2.992  1.00  0.00    +0.040 A 
ATOM     17  C   UNL     1      16.158 -20.213   2.380  1.00  0.00    +0.060 A 
ATOM     18  C   UNL     1      16.704 -21.258   3.160  1.00  0.00    +0.067 A 
ATOM     19  S   UNL     1      17.703 -22.532   2.422  1.00  0.00    -0.096 SA
ATOM     20  C   UNL     1      20.778 -23.836   4.714  1.00  0.00    +0.124 C 
ATOM     21  C   UNL     1      22.233 -23.847   4.270  1.00  0.00    +0.087 C 
ATOM     22  O   UNL     1      23.811 -24.751   2.693  1.00  0.00    -0.344 OA
ENDROOT
BRANCH  17  23
ATOM     23  N   UNL     1      16.482 -20.177   1.003  1.00  0.00    -0.324 N 
ATOM     24  C   UNL     1      16.730 -19.077   0.198  1.00  0.00    +0.240 C 
ATOM     25  O   UNL     1      16.691 -17.909   0.578  1.00  0.00    -0.273 OA
ATOM     26  H   UNL     1      16.417 -21.075   0.529  1.00  0.00    +0.170 HD
BRANCH  24  27
ATOM     27  C   UNL     1      17.133 -19.435  -1.247  1.00  0.00    +0.099 C 
ATOM     28  C   UNL     1      17.613 -18.205  -2.012  1.00  0.00    +0.034 C 
ATOM     29  C   UNL     1      15.999 -20.135  -1.992  1.00  0.00    +0.034 C 
ATOM     30 Br   UNL     1      18.638 -20.711  -1.126  1.00  0.00    -0.075 Br
ENDBRANCH  24  27
ENDBRANCH  17  23
BRANCH  15  31
ATOM     31  C   UNL     1      14.113 -18.308   4.991  1.00  0.00    +0.416 C 
ATOM     32  F   UNL     1      13.069 -18.882   5.646  1.00  0.00    -0.166 F 
ATOM     33  F   UNL     1      13.567 -17.456   4.079  1.00  0.00    -0.166 F 
ATOM     34  F   UNL     1      14.742 -17.517   5.904  1.00  0.00    -0.166 F 
ENDBRANCH  15  31
TORSDOF 3
ENDMDL
MODEL 5
REMARK VINA RESULT:    -7.828      3.192      7.605
REMARK INTER + INTRA:          -9.860
REMARK INTER:                  -9.213
REMARK INTRA:                  -0.647
REMARK UNBOUND:                -0.658
REMARK SMILES C[C@H]1COC2(CCN(c3nc(=O)c4cc(C(F)(F)F)cc(NC(=O)C(C)(C)Br)c4s3)CC2)O1
REMARK SMILES IDX 1 1 2 2 3 3 4 4 5 5 6 6 7 7 8 8 9 9 10 10 11 11 12 12 13 13
REMARK SMILES IDX 14 14 15 15 20 16 21 17 29 18 30 19 31 20 32 21 33 22 22 23
REMARK SMILES IDX 23 24 24 25 25 27 26 28 27 29 28 30 16 31 17 32 18 33 19 34
REMARK H PARENT 22 26
ROOT
ATOM      1  C   UNL     1      27.385 -26.047   5.269  1.00  0.00    +0.041 C 
ATOM      2  C   UNL     1      26.081 -26.213   4.521  1.00  0.00    +0.144 C 
ATOM      3  C   UNL     1      24.924 -26.633   5.393  1.00  0.00    +0.195 C 
ATOM      4  O   UNL     1      23.784 -26.243   4.624  1.00  0.00    -0.347 OA
ATOM      5  C   UNL     1      24.210 -25.075   3.899  1.00  0.00    +0.172 C 
ATOM      6  C   UNL     1      23.809 -25.219   2.435  1.00  0.00    +0.087 C 
ATOM      7  C   UNL     1      22.294 -25.184   2.281  1.00  0.00    +0.124 C 
ATOM      8  N   UNL     1      21.746 -23.946   2.869  1.00  0.00    -0.348 N 
ATOM      9  C   UNL     1      20.506 -23.461   2.455  1.00  0.00    +0.189 C 
ATOM     10  N   UNL     1      19.614 -23.074   3.310  1.00  0.00    -0.181 NA
ATOM     11  C   UNL     1      18.388 -22.593   2.948  1.00  0.00    +0.281 C 
ATOM     12  O   UNL     1      17.390 -22.747   3.644  1.00  0.00    -0.267 OA
ATOM     13  C   UNL     1      18.252 -21.774   1.725  1.00  0.00    +0.062 A 
ATOM     14  C   UNL     1      17.266 -20.779   1.671  1.00  0.00    +0.028 A 
ATOM     15  C   UNL     1      17.124 -19.988   0.526  1.00  0.00    +0.058 A 
ATOM     16  C   UNL     1      17.968 -20.228  -0.572  1.00  0.00    +0.040 A 
ATOM     17  C   UNL     1      18.940 -21.236  -0.535  1.00  0.00    +0.060 A 
ATOM     18  C   UNL     1      19.084 -22.014   0.635  1.00  0.00    +0.067 A 
ATOM     19  S   UNL     1      20.258 -23.350   0.713  1.00  0.00    -0.096 SA
ATOM     20  C   UNL     1      22.076 -23.818   4.304  1.00  0.00    +0.124 C 
ATOM     21  C   UNL     1      23.584 -23.825   4.506  1.00  0.00    +0.087 C 
ATOM     22  O   UNL     1      25.642 -24.960   3.989  1.00  0.00    -0.344 OA
ENDROOT
BRANCH  17  23
ATOM     23  N   UNL     1      19.803 -21.509  -1.623  1.00  0.00    -0.324 N 
ATOM     24  C   UNL     1      19.519 -22.154  -2.816  1.00  0.00    +0.240 C 
ATOM     25  O   UNL     1      18.422 -22.618  -3.116  1.00  0.00    -0.273 OA
ATOM     26  H   UNL     1      20.783 -21.294  -1.451  1.00  0.00    +0.170 HD
BRANCH  24  27
ATOM     27  C   UNL     1      20.703 -22.197  -3.803  1.00  0.00    +0.099 C 
ATOM     28  C   UNL     1      21.953 -21.560  -3.201  1.00  0.00    +0.034 C 
ATOM     29  C   UNL     1      20.349 -21.549  -5.139  1.00  0.00    +0.034 C 
ATOM     30 Br   UNL     1      21.093 -24.102  -4.154  1.00  0.00    -0.075 Br
ENDBRANCH  24  27
ENDBRANCH  17  23
BRANCH  15  31
ATOM     31  C   UNL     1      16.062 -18.917   0.448  1.00  0.00    +0.416 C 
ATOM     32  F   UNL     1      15.402 -18.928  -0.742  1.00  0.00    -0.166 F 
ATOM     33  F   UNL     1      16.566 -17.660   0.592  1.00  0.00    -0.166 F 
ATOM     34  F   UNL     1      15.105 -19.043   1.409  1.00  0.00    -0.166 F 
ENDBRANCH  15  31
TORSDOF 3
ENDMDL
MODEL 6
REMARK VINA RESULT:    -7.760      3.985      8.051
REMARK INTER + INTRA:          -9.779
REMARK INTER:                  -9.161
REMARK INTRA:                  -0.618
REMARK UNBOUND:                -0.658
REMARK SMILES C[C@H]1COC2(CCN(c3nc(=O)c4cc(C(F)(F)F)cc(NC(=O)C(C)(C)Br)c4s3)CC2)O1
REMARK SMILES IDX 1 1 2 2 3 3 4 4 5 5 6 6 7 7 8 8 9 9 10 10 11 11 12 12 13 13
REMARK SMILES IDX 14 14 15 15 20 16 21 17 29 18 30 19 31 20 32 21 33 22 22 23
REMARK SMILES IDX 23 24 24 25 25 27 26 28 27 29 28 30 16 31 17 32 18 33 19 34
REMARK H PARENT 22 26
ROOT
ATOM      1  C   UNL     1      26.844 -24.065   6.184  1.00  0.00    +0.041 C 
ATOM      2  C   UNL     1      25.989 -24.672   5.093  1.00  0.00    +0.144 C 
ATOM      3  C   UNL     1      24.942 -25.633   5.598  1.00  0.00    +0.195 C 
ATOM      4  O   UNL     1      23.995 -25.666   4.529  1.00  0.00    -0.347 OA
ATOM      5  C   UNL     1      24.051 -24.352   3.945  1.00  0.00    +0.172 C 
ATOM      6  C   UNL     1      24.155 -24.480   2.429  1.00  0.00    +0.087 C 
ATOM      7  C   UNL     1      22.875 -25.062   1.844  1.00  0.00    +0.124 C 
ATOM      8  N   UNL     1      21.712 -24.241   2.234  1.00  0.00    -0.348 N 
ATOM      9  C   UNL     1      20.543 -24.271   1.474  1.00  0.00    +0.189 C 
ATOM     10  N   UNL     1      19.381 -24.391   2.031  1.00  0.00    -0.181 NA
ATOM     11  C   UNL     1      18.211 -24.426   1.324  1.00  0.00    +0.281 C 
ATOM     12  O   UNL     1      17.233 -25.060   1.705  1.00  0.00    -0.267 OA
ATOM     13  C   UNL     1      18.065 -23.603   0.106  1.00  0.00    +0.062 A 
ATOM     14  C   UNL     1      16.800 -23.110  -0.242  1.00  0.00    +0.028 A 
ATOM     15  C   UNL     1      16.640 -22.324  -1.388  1.00  0.00    +0.058 A 
ATOM     16  C   UNL     1      17.762 -22.063  -2.193  1.00  0.00    +0.040 A 
ATOM     17  C   UNL     1      19.026 -22.572  -1.865  1.00  0.00    +0.060 A 
ATOM     18  C   UNL     1      19.175 -23.349  -0.695  1.00  0.00    +0.067 A 
ATOM     19  S   UNL     1      20.743 -24.074  -0.266  1.00  0.00    -0.096 SA
ATOM     20  C   UNL     1      21.561 -24.153   3.701  1.00  0.00    +0.124 C 
ATOM     21  C   UNL     1      22.810 -23.555   4.331  1.00  0.00    +0.087 C 
ATOM     22  O   UNL     1      25.212 -23.663   4.443  1.00  0.00    -0.344 OA
ENDROOT
BRANCH  17  23
ATOM     23  N   UNL     1      20.176 -22.335  -2.654  1.00  0.00    -0.324 N 
ATOM     24  C   UNL     1      20.466 -22.798  -3.928  1.00  0.00    +0.240 C 
ATOM     25  O   UNL     1      19.735 -23.530  -4.590  1.00  0.00    -0.273 OA
ATOM     26  H   UNL     1      20.928 -21.847  -2.172  1.00  0.00    +0.170 HD
BRANCH  24  27
ATOM     27  C   UNL     1      21.792 -22.261  -4.503  1.00  0.00    +0.099 C 
ATOM     28  C   UNL     1      22.751 -23.398  -4.848  1.00  0.00    +0.034 C 
ATOM     29  C   UNL     1      22.452 -21.257  -3.560  1.00  0.00    +0.034 C 
ATOM     30 Br   UNL     1      21.351 -21.302  -6.174  1.00  0.00    -0.075 Br
ENDBRANCH  24  27
ENDBRANCH  17  23
BRANCH  15  31
ATOM     31  C   UNL     1      15.282 -21.791  -1.782  1.00  0.00    +0.416 C 
ATOM     32  F   UNL     1      15.047 -20.551  -1.275  1.00  0.00    -0.166 F 
ATOM     33  F   UNL     1      14.259 -22.579  -1.351  1.00  0.00    -0.166 F 
ATOM     34  F   UNL     1      15.123 -21.683  -3.131  1.00  0.00    -0.166 F 
ENDBRANCH  15  31
TORSDOF 3
ENDMDL
MODEL 7
REMARK VINA RESULT:    -7.755      4.011      7.742
REMARK INTER + INTRA:          -9.773
REMARK INTER:                  -9.189
REMARK INTRA:                  -0.584
REMARK UNBOUND:                -0.658
REMARK SMILES C[C@H]1COC2(CCN(c3nc(=O)c4cc(C(F)(F)F)cc(NC(=O)C(C)(C)Br)c4s3)CC2)O1
REMARK SMILES IDX 1 1 2 2 3 3 4 4 5 5 6 6 7 7 8 8 9 9 10 10 11 11 12 12 13 13
REMARK SMILES IDX 14 14 15 15 20 16 21 17 29 18 30 19 31 20 32 21 33 22 22 23
REMARK SMILES IDX 23 24 24 25 25 27 26 28 27 29 28 30 16 31 17 32 18 33 19 34
REMARK H PARENT 22 26
ROOT
ATOM      1  C   UNL     1      25.954 -27.727   5.842  1.00  0.00    +0.041 C 
ATOM      2  C   UNL     1      25.375 -26.407   5.385  1.00  0.00    +0.144 C 
ATOM      3  C   UNL     1      26.025 -25.848   4.144  1.00  0.00    +0.195 C 
ATOM      4  O   UNL     1      25.040 -24.941   3.646  1.00  0.00    -0.347 OA
ATOM      5  C   UNL     1      23.778 -25.520   4.027  1.00  0.00    +0.172 C 
ATOM      6  C   UNL     1      22.902 -24.443   4.657  1.00  0.00    +0.087 C 
ATOM      7  C   UNL     1      22.502 -23.396   3.626  1.00  0.00    +0.124 C 
ATOM      8  N   UNL     1      21.826 -24.035   2.481  1.00  0.00    -0.348 N 
ATOM      9  C   UNL     1      20.971 -23.294   1.666  1.00  0.00    +0.189 C 
ATOM     10  N   UNL     1      21.045 -23.359   0.375  1.00  0.00    -0.181 NA
ATOM     11  C   UNL     1      20.229 -22.650  -0.460  1.00  0.00    +0.281 C 
ATOM     12  O   UNL     1      20.596 -22.259  -1.563  1.00  0.00    -0.267 OA
ATOM     13  C   UNL     1      18.819 -22.414  -0.083  1.00  0.00    +0.062 A 
ATOM     14  C   UNL     1      17.848 -22.308  -1.087  1.00  0.00    +0.028 A 
ATOM     15  C   UNL     1      16.507 -22.091  -0.753  1.00  0.00    +0.058 A 
ATOM     16  C   UNL     1      16.161 -21.956   0.603  1.00  0.00    +0.040 A 
ATOM     17  C   UNL     1      17.129 -22.037   1.612  1.00  0.00    +0.060 A 
ATOM     18  C   UNL     1      18.476 -22.275   1.260  1.00  0.00    +0.067 A 
ATOM     19  S   UNL     1      19.756 -22.323   2.495  1.00  0.00    -0.096 SA
ATOM     20  C   UNL     1      22.683 -25.042   1.820  1.00  0.00    +0.124 C 
ATOM     21  C   UNL     1      23.091 -26.124   2.809  1.00  0.00    +0.087 C 
ATOM     22  O   UNL     1      24.010 -26.565   4.989  1.00  0.00    -0.344 OA
ENDROOT
BRANCH  17  23
ATOM     23  N   UNL     1      16.818 -21.900   2.986  1.00  0.00    -0.324 N 
ATOM     24  C   UNL     1      16.274 -20.812   3.649  1.00  0.00    +0.240 C 
ATOM     25  O   UNL     1      15.978 -19.745   3.117  1.00  0.00    -0.273 OA
ATOM     26  H   UNL     1      17.138 -22.669   3.571  1.00  0.00    +0.170 HD
BRANCH  24  27
ATOM     27  C   UNL     1      16.001 -21.063   5.146  1.00  0.00    +0.099 C 
ATOM     28  C   UNL     1      17.054 -21.983   5.758  1.00  0.00    +0.034 C 
ATOM     29  C   UNL     1      14.595 -21.611   5.380  1.00  0.00    +0.034 C 
ATOM     30 Br   UNL     1      16.112 -19.311   6.054  1.00  0.00    -0.075 Br
ENDBRANCH  24  27
ENDBRANCH  17  23
BRANCH  15  31
ATOM     31  C   UNL     1      15.448 -21.966  -1.823  1.00  0.00    +0.416 C 
ATOM     32  F   UNL     1      15.145 -20.670  -2.102  1.00  0.00    -0.166 F 
ATOM     33  F   UNL     1      14.276 -22.567  -1.480  1.00  0.00    -0.166 F 
ATOM     34  F   UNL     1      15.818 -22.530  -3.007  1.00  0.00    -0.166 F 
ENDBRANCH  15  31
TORSDOF 3
ENDMDL
MODEL 8
REMARK VINA RESULT:    -7.577      3.742      5.017
REMARK INTER + INTRA:          -9.564
REMARK INTER:                  -8.934
REMARK INTRA:                  -0.630
REMARK UNBOUND:                -0.658
REMARK SMILES C[C@H]1COC2(CCN(c3nc(=O)c4cc(C(F)(F)F)cc(NC(=O)C(C)(C)Br)c4s3)CC2)O1
REMARK SMILES IDX 1 1 2 2 3 3 4 4 5 5 6 6 7 7 8 8 9 9 10 10 11 11 12 12 13 13
REMARK SMILES IDX 14 14 15 15 20 16 21 17 29 18 30 19 31 20 32 21 33 22 22 23
REMARK SMILES IDX 23 24 24 25 25 27 26 28 27 29 28 30 16 31 17 32 18 33 19 34
REMARK H PARENT 22 26
ROOT
ATOM      1  C   UNL     1      26.337 -22.726  -9.565  1.00  0.00    +0.041 C 
ATOM      2  C   UNL     1      25.835 -22.172  -8.250  1.00  0.00    +0.144 C 
ATOM      3  C   UNL     1      25.018 -20.911  -8.387  1.00  0.00    +0.195 C 
ATOM      4  O   UNL     1      24.273 -20.876  -7.168  1.00  0.00    -0.347 OA
ATOM      5  C   UNL     1      24.061 -22.258  -6.825  1.00  0.00    +0.172 C 
ATOM      6  C   UNL     1      24.407 -22.469  -5.356  1.00  0.00    +0.087 C 
ATOM      7  C   UNL     1      23.421 -21.736  -4.455  1.00  0.00    +0.124 C 
ATOM      8  N   UNL     1      22.041 -22.167  -4.748  1.00  0.00    -0.348 N 
ATOM      9  C   UNL     1      21.040 -22.020  -3.788  1.00  0.00    +0.189 C 
ATOM     10  N   UNL     1      19.884 -21.521  -4.090  1.00  0.00    -0.181 NA
ATOM     11  C   UNL     1      18.877 -21.359  -3.181  1.00  0.00    +0.281 C 
ATOM     12  O   UNL     1      18.057 -20.449  -3.264  1.00  0.00    -0.267 OA
ATOM     13  C   UNL     1      18.690 -22.355  -2.106  1.00  0.00    +0.062 A 
ATOM     14  C   UNL     1      17.402 -22.600  -1.613  1.00  0.00    +0.028 A 
ATOM     15  C   UNL     1      17.201 -23.543  -0.599  1.00  0.00    +0.058 A 
ATOM     16  C   UNL     1      18.317 -24.217  -0.071  1.00  0.00    +0.040 A 
ATOM     17  C   UNL     1      19.611 -23.962  -0.543  1.00  0.00    +0.060 A 
ATOM     18  C   UNL     1      19.795 -23.019  -1.579  1.00  0.00    +0.067 A 
ATOM     19  S   UNL     1      21.422 -22.609  -2.172  1.00  0.00    -0.096 SA
ATOM     20  C   UNL     1      21.667 -21.915  -6.156  1.00  0.00    +0.124 C 
ATOM     21  C   UNL     1      22.613 -22.647  -7.096  1.00  0.00    +0.087 C 
ATOM     22  O   UNL     1      24.918 -23.083  -7.637  1.00  0.00    -0.344 OA
ENDROOT
BRANCH  17  23
ATOM     23  N   UNL     1      20.756 -24.616  -0.032  1.00  0.00    -0.324 N 
ATOM     24  C   UNL     1      21.513 -24.299   1.085  1.00  0.00    +0.240 C 
ATOM     25  O   UNL     1      21.296 -23.346   1.828  1.00  0.00    -0.273 OA
ATOM     26  H   UNL     1      21.127 -25.351  -0.631  1.00  0.00    +0.170 HD
BRANCH  24  27
ATOM     27  C   UNL     1      22.651 -25.298   1.376  1.00  0.00    +0.099 C 
ATOM     28  C   UNL     1      24.020 -24.669   1.129  1.00  0.00    +0.034 C 
ATOM     29  C   UNL     1      22.490 -26.587   0.574  1.00  0.00    +0.034 C 
ATOM     30 Br   UNL     1      22.528 -25.772   3.290  1.00  0.00    -0.075 Br
ENDBRANCH  24  27
ENDBRANCH  17  23
BRANCH  15  31
ATOM     31  C   UNL     1      15.821 -23.814  -0.050  1.00  0.00    +0.416 C 
ATOM     32  F   UNL     1      15.472 -25.125  -0.149  1.00  0.00    -0.166 F 
ATOM     33  F   UNL     1      14.848 -23.111  -0.693  1.00  0.00    -0.166 F 
ATOM     34  F   UNL     1      15.698 -23.491   1.268  1.00  0.00    -0.166 F 
ENDBRANCH  15  31
TORSDOF 3
ENDMDL
MODEL 9
REMARK VINA RESULT:    -7.455      4.683      8.136
REMARK INTER + INTRA:          -9.421
REMARK INTER:                  -8.723
REMARK INTRA:                  -0.698
REMARK UNBOUND:                -0.658
REMARK SMILES C[C@H]1COC2(CCN(c3nc(=O)c4cc(C(F)(F)F)cc(NC(=O)C(C)(C)Br)c4s3)CC2)O1
REMARK SMILES IDX 1 1 2 2 3 3 4 4 5 5 6 6 7 7 8 8 9 9 10 10 11 11 12 12 13 13
REMARK SMILES IDX 14 14 15 15 20 16 21 17 29 18 30 19 31 20 32 21 33 22 22 23
REMARK SMILES IDX 23 24 24 25 25 27 26 28 27 29 28 30 16 31 17 32 18 33 19 34
REMARK H PARENT 22 26
ROOT
ATOM      1  C   UNL     1      14.369 -18.205   6.531  1.00  0.00    +0.041 C 
ATOM      2  C   UNL     1      14.829 -19.457   5.818  1.00  0.00    +0.144 C 
ATOM      3  C   UNL     1      13.950 -19.863   4.661  1.00  0.00    +0.195 C 
ATOM      4  O   UNL     1      14.809 -20.697   3.882  1.00  0.00    -0.347 OA
ATOM      5  C   UNL     1      16.129 -20.163   4.088  1.00  0.00    +0.172 C 
ATOM      6  C   UNL     1      17.088 -21.305   4.408  1.00  0.00    +0.087 C 
ATOM      7  C   UNL     1      17.271 -22.216   3.202  1.00  0.00    +0.124 C 
ATOM      8  N   UNL     1      17.734 -21.438   2.037  1.00  0.00    -0.348 N 
ATOM      9  C   UNL     1      18.409 -22.069   0.992  1.00  0.00    +0.189 C 
ATOM     10  N   UNL     1      18.097 -21.847  -0.244  1.00  0.00    -0.181 NA
ATOM     11  C   UNL     1      18.732 -22.444  -1.296  1.00  0.00    +0.281 C 
ATOM     12  O   UNL     1      18.159 -22.699  -2.350  1.00  0.00    -0.267 OA
ATOM     13  C   UNL     1      20.182 -22.717  -1.220  1.00  0.00    +0.062 A 
ATOM     14  C   UNL     1      20.947 -22.695  -2.394  1.00  0.00    +0.028 A 
ATOM     15  C   UNL     1      22.323 -22.944  -2.344  1.00  0.00    +0.058 A 
ATOM     16  C   UNL     1      22.913 -23.243  -1.104  1.00  0.00    +0.040 A 
ATOM     17  C   UNL     1      22.151 -23.290   0.071  1.00  0.00    +0.060 A 
ATOM     18  C   UNL     1      20.766 -23.018   0.007  1.00  0.00    +0.067 A 
ATOM     19  S   UNL     1      19.739 -23.128   1.457  1.00  0.00    -0.096 SA
ATOM     20  C   UNL     1      16.787 -20.362   1.674  1.00  0.00    +0.124 C 
ATOM     21  C   UNL     1      16.589 -19.411   2.845  1.00  0.00    +0.087 C 
ATOM     22  O   UNL     1      16.099 -19.245   5.196  1.00  0.00    -0.344 OA
ENDROOT
BRANCH  17  23
ATOM     23  N   UNL     1      22.709 -23.592   1.335  1.00  0.00    -0.324 N 
ATOM     24  C   UNL     1      23.435 -22.771   2.183  1.00  0.00    +0.240 C 
ATOM     25  O   UNL     1      23.728 -21.602   1.944  1.00  0.00    -0.273 OA
ATOM     26  H   UNL     1      22.655 -24.574   1.599  1.00  0.00    +0.170 HD
BRANCH  24  27
ATOM     27  C   UNL     1      23.813 -23.432   3.524  1.00  0.00    +0.099 C 
ATOM     28  C   UNL     1      24.787 -24.590   3.320  1.00  0.00    +0.034 C 
ATOM     29  C   UNL     1      22.578 -23.887   4.298  1.00  0.00    +0.034 C 
ATOM     30 Br   UNL     1      24.718 -22.052   4.612  1.00  0.00    -0.075 Br
ENDBRANCH  24  27
ENDBRANCH  17  23
BRANCH  15  31
ATOM     31  C   UNL     1      23.162 -22.932  -3.601  1.00  0.00    +0.416 C 
ATOM     32  F   UNL     1      24.453 -23.289  -3.364  1.00  0.00    -0.166 F 
ATOM     33  F   UNL     1      23.208 -21.707  -4.193  1.00  0.00    -0.166 F 
ATOM     34  F   UNL     1      22.704 -23.787  -4.557  1.00  0.00    -0.166 F 
ENDBRANCH  15  31
TORSDOF 3
ENDMDL
