MODEL 1
REMARK VINA RESULT:    -9.086      0.000      0.000
REMARK INTER + INTRA:         -13.502
REMARK INTER:                 -12.539
REMARK INTRA:                  -0.964
REMARK UNBOUND:                -0.964
REMARK SMILES COc1ccc(CNc2nc3cc(C(F)(F)F)ccc3nc2C(=O)O)cc1F
REMARK SMILES IDX 8 1 7 3 6 4 3 5 4 6 27 7 5 8 26 9 28 10 2 11 1 12 9 13 10 14
REMARK SMILES IDX 22 15 11 16 21 17 12 18 20 19 13 20 19 21 18 22 23 23 24 24
REMARK SMILES IDX 25 25 14 27 15 28 16 29 17 30
REMARK H PARENT 8 2 25 26
ROOT
ATOM      1  N   UNL     1      18.043 -20.857   1.079  1.00  0.00    -0.364 N 
ATOM      2  H   UNL     1      17.715 -21.384   0.267  1.00  0.00    +0.162 HD
ENDROOT
BRANCH   1   3
ATOM      3  C   UNL     1      18.133 -21.745   2.240  1.00  0.00    +0.150 C 
BRANCH   3   4
ATOM      4  C   UNL     1      18.046 -23.187   1.792  1.00  0.00    -0.026 A 
ATOM      5  C   UNL     1      17.862 -25.895   1.008  1.00  0.00    +0.154 A 
ATOM      6  C   UNL     1      18.899 -25.472   1.842  1.00  0.00    +0.050 A 
ATOM      7  C   UNL     1      16.921 -24.953   0.581  1.00  0.00    +0.165 A 
ATOM      8  C   UNL     1      18.988 -24.129   2.233  1.00  0.00    +0.009 A 
ATOM      9  C   UNL     1      17.001 -23.617   0.967  1.00  0.00    +0.048 A 
ATOM     10  F   UNL     1      15.908 -25.328  -0.215  1.00  0.00    -0.203 F 
BRANCH   5  11
ATOM     11  O   UNL     1      17.671 -27.174   0.560  1.00  0.00    -0.494 OA
ATOM     12  C   UNL     1      17.164 -28.121   1.491  1.00  0.00    +0.278 C 
ENDBRANCH   5  11
ENDBRANCH   3   4
ENDBRANCH   1   3
BRANCH   1  13
ATOM     13  C   UNL     1      17.119 -19.822   1.206  1.00  0.00    +0.160 A 
ATOM     14  N   UNL     1      16.476 -19.843   2.399  1.00  0.00    -0.227 NA
ATOM     15  C   UNL     1      16.796 -18.849   0.251  1.00  0.00    +0.191 A 
ATOM     16  C   UNL     1      15.544 -18.901   2.636  1.00  0.00    +0.092 A 
ATOM     17  N   UNL     1      15.858 -17.882   0.490  1.00  0.00    -0.236 NA
ATOM     18  C   UNL     1      14.872 -18.898   3.853  1.00  0.00    +0.043 A 
ATOM     19  C   UNL     1      15.237 -17.914   1.676  1.00  0.00    +0.090 A 
ATOM     20  C   UNL     1      13.898 -17.933   4.157  1.00  0.00    +0.058 A 
ATOM     21  C   UNL     1      14.267 -16.964   1.970  1.00  0.00    +0.031 A 
ATOM     22  C   UNL     1      13.596 -16.966   3.195  1.00  0.00    +0.015 A 
BRANCH  15  23
ATOM     23  C   UNL     1      17.422 -18.816  -1.109  1.00  0.00    +0.358 C 
ATOM     24  O   UNL     1      18.122 -17.948  -1.597  1.00  0.00    -0.244 OA
BRANCH  23  25
ATOM     25  O   UNL     1      17.115 -19.913  -1.839  1.00  0.00    -0.476 OA
ATOM     26  H   UNL     1      17.735 -20.601  -1.522  1.00  0.00    +0.297 HD
ENDBRANCH  23  25
ENDBRANCH  15  23
BRANCH  20  27
ATOM     27  C   UNL     1      13.174 -17.974   5.481  1.00  0.00    +0.416 C 
ATOM     28  F   UNL     1      13.955 -18.441   6.493  1.00  0.00    -0.166 F 
ATOM     29  F   UNL     1      12.078 -18.780   5.444  1.00  0.00    -0.166 F 
ATOM     30  F   UNL     1      12.731 -16.752   5.885  1.00  0.00    -0.166 F 
ENDBRANCH  20  27
ENDBRANCH   1  13
TORSDOF 7
ENDMDL
MODEL 2
REMARK VINA RESULT:    -9.039      2.356      2.760
REMARK INTER + INTRA:         -13.438
REMARK INTER:                 -12.515
REMARK INTRA:                  -0.923
REMARK UNBOUND:                -0.964
REMARK SMILES COc1ccc(CNc2nc3cc(C(F)(F)F)ccc3nc2C(=O)O)cc1F
REMARK SMILES IDX 8 1 7 3 6 4 3 5 4 6 27 7 5 8 26 9 28 10 2 11 1 12 9 13 10 14
REMARK SMILES IDX 22 15 11 16 21 17 12 18 20 19 13 20 19 21 18 22 23 23 24 24
REMARK SMILES IDX 25 25 14 27 15 28 16 29 17 30
REMARK H PARENT 8 2 25 26
ROOT
ATOM      1  N   UNL     1      17.892 -20.929   0.944  1.00  0.00    -0.364 N 
ATOM      2  H   UNL     1      17.918 -21.071  -0.067  1.00  0.00    +0.162 HD
ENDROOT
BRANCH   1   3
ATOM      3  C   UNL     1      17.481 -22.168   1.606  1.00  0.00    +0.150 C 
BRANCH   3   4
ATOM      4  C   UNL     1      18.642 -22.744   2.386  1.00  0.00    -0.026 A 
ATOM      5  C   UNL     1      20.796 -23.873   3.823  1.00  0.00    +0.154 A 
ATOM      6  C   UNL     1      19.489 -24.002   4.297  1.00  0.00    +0.050 A 
ATOM      7  C   UNL     1      21.008 -23.184   2.625  1.00  0.00    +0.165 A 
ATOM      8  C   UNL     1      18.420 -23.444   3.581  1.00  0.00    +0.009 A 
ATOM      9  C   UNL     1      19.951 -22.628   1.907  1.00  0.00    +0.048 A 
ATOM     10  F   UNL     1      22.251 -23.049   2.137  1.00  0.00    -0.203 F 
BRANCH   5  11
ATOM     11  O   UNL     1      21.917 -24.372   4.430  1.00  0.00    -0.494 OA
ATOM     12  C   UNL     1      22.377 -25.646   4.000  1.00  0.00    +0.278 C 
ENDBRANCH   5  11
ENDBRANCH   3   4
ENDBRANCH   1   3
BRANCH   1  13
ATOM     13  C   UNL     1      17.017 -19.858   1.112  1.00  0.00    +0.160 A 
ATOM     14  N   UNL     1      16.378 -19.892   2.307  1.00  0.00    -0.227 NA
ATOM     15  C   UNL     1      16.735 -18.838   0.194  1.00  0.00    +0.191 A 
ATOM     16  C   UNL     1      15.491 -18.918   2.583  1.00  0.00    +0.092 A 
ATOM     17  N   UNL     1      15.843 -17.838   0.472  1.00  0.00    -0.236 NA
ATOM     18  C   UNL     1      14.824 -18.928   3.802  1.00  0.00    +0.043 A 
ATOM     19  C   UNL     1      15.225 -17.885   1.660  1.00  0.00    +0.090 A 
ATOM     20  C   UNL     1      13.896 -17.931   4.147  1.00  0.00    +0.058 A 
ATOM     21  C   UNL     1      14.301 -16.903   1.993  1.00  0.00    +0.031 A 
ATOM     22  C   UNL     1      13.634 -16.918   3.221  1.00  0.00    +0.015 A 
BRANCH  15  23
ATOM     23  C   UNL     1      17.356 -18.785  -1.167  1.00  0.00    +0.358 C 
ATOM     24  O   UNL     1      18.085 -17.928  -1.631  1.00  0.00    -0.244 OA
BRANCH  23  25
ATOM     25  O   UNL     1      17.007 -19.847  -1.929  1.00  0.00    -0.476 OA
ATOM     26  H   UNL     1      16.830 -20.564  -1.286  1.00  0.00    +0.297 HD
ENDBRANCH  23  25
ENDBRANCH  15  23
BRANCH  20  27
ATOM     27  C   UNL     1      13.176 -17.986   5.472  1.00  0.00    +0.416 C 
ATOM     28  F   UNL     1      12.140 -18.869   5.470  1.00  0.00    -0.166 F 
ATOM     29  F   UNL     1      12.648 -16.783   5.822  1.00  0.00    -0.166 F 
ATOM     30  F   UNL     1      13.983 -18.360   6.503  1.00  0.00    -0.166 F 
ENDBRANCH  20  27
ENDBRANCH   1  13
TORSDOF 7
ENDMDL
MODEL 3
REMARK VINA RESULT:    -9.022      3.764      7.690
REMARK INTER + INTRA:         -13.414
REMARK INTER:                 -12.473
REMARK INTRA:                  -0.941
REMARK UNBOUND:                -0.964
REMARK SMILES COc1ccc(CNc2nc3cc(C(F)(F)F)ccc3nc2C(=O)O)cc1F
REMARK SMILES IDX 8 1 7 3 6 4 3 5 4 6 27 7 5 8 26 9 28 10 2 11 1 12 9 13 10 14
REMARK SMILES IDX 22 15 11 16 21 17 12 18 20 19 13 20 19 21 18 22 23 23 24 24
REMARK SMILES IDX 25 25 14 27 15 28 16 29 17 30
REMARK H PARENT 8 2 25 26
ROOT
ATOM      1  N   UNL     1      18.035 -22.070   4.985  1.00  0.00    -0.364 N 
ATOM      2  H   UNL     1      18.724 -22.610   5.511  1.00  0.00    +0.162 HD
ENDROOT
BRANCH   1   3
ATOM      3  C   UNL     1      16.690 -22.372   5.478  1.00  0.00    +0.150 C 
BRANCH   3   4
ATOM      4  C   UNL     1      15.898 -21.092   5.627  1.00  0.00    -0.026 A 
ATOM      5  C   UNL     1      14.393 -18.724   5.955  1.00  0.00    +0.154 A 
ATOM      6  C   UNL     1      13.791 -19.876   5.446  1.00  0.00    +0.050 A 
ATOM      7  C   UNL     1      15.747 -18.775   6.302  1.00  0.00    +0.165 A 
ATOM      8  C   UNL     1      14.538 -21.052   5.287  1.00  0.00    +0.009 A 
ATOM      9  C   UNL     1      16.495 -19.939   6.149  1.00  0.00    +0.048 A 
ATOM     10  F   UNL     1      16.354 -17.687   6.801  1.00  0.00    -0.203 F 
BRANCH   5  11
ATOM     11  O   UNL     1      13.771 -17.521   6.154  1.00  0.00    -0.494 OA
ATOM     12  C   UNL     1      12.943 -17.035   5.106  1.00  0.00    +0.278 C 
ENDBRANCH   5  11
ENDBRANCH   3   4
ENDBRANCH   1   3
BRANCH   1  13
ATOM     13  C   UNL     1      18.265 -22.429   3.658  1.00  0.00    +0.160 A 
ATOM     14  N   UNL     1      17.332 -21.925   2.814  1.00  0.00    -0.227 NA
ATOM     15  C   UNL     1      19.292 -23.243   3.164  1.00  0.00    +0.191 A 
ATOM     16  C   UNL     1      17.435 -22.216   1.504  1.00  0.00    +0.092 A 
ATOM     17  N   UNL     1      19.410 -23.534   1.832  1.00  0.00    -0.236 NA
ATOM     18  C   UNL     1      16.493 -21.709   0.617  1.00  0.00    +0.043 A 
ATOM     19  C   UNL     1      18.482 -23.023   1.011  1.00  0.00    +0.090 A 
ATOM     20  C   UNL     1      16.558 -21.973  -0.761  1.00  0.00    +0.058 A 
ATOM     21  C   UNL     1      18.544 -23.293  -0.349  1.00  0.00    +0.031 A 
ATOM     22  C   UNL     1      17.594 -22.781  -1.236  1.00  0.00    +0.015 A 
BRANCH  15  23
ATOM     23  C   UNL     1      20.312 -23.884   4.054  1.00  0.00    +0.358 C 
ATOM     24  O   UNL     1      20.761 -25.013   3.996  1.00  0.00    -0.244 OA
BRANCH  23  25
ATOM     25  O   UNL     1      20.730 -23.050   5.034  1.00  0.00    -0.476 OA
ATOM     26  H   UNL     1      19.993 -23.039   5.678  1.00  0.00    +0.297 HD
ENDBRANCH  23  25
ENDBRANCH  15  23
BRANCH  20  27
ATOM     27  C   UNL     1      15.504 -21.423  -1.692  1.00  0.00    +0.416 C 
ATOM     28  F   UNL     1      15.905 -21.414  -2.993  1.00  0.00    -0.166 F 
ATOM     29  F   UNL     1      15.170 -20.139  -1.390  1.00  0.00    -0.166 F 
ATOM     30  F   UNL     1      14.343 -22.133  -1.664  1.00  0.00    -0.166 F 
ENDBRANCH  20  27
ENDBRANCH   1  13
TORSDOF 7
ENDMDL
MODEL 4
REMARK VINA RESULT:    -8.984      3.090      4.936
REMARK INTER + INTRA:         -13.362
REMARK INTER:                 -12.398
REMARK INTRA:                  -0.963
REMARK UNBOUND:                -0.964
REMARK SMILES COc1ccc(CNc2nc3cc(C(F)(F)F)ccc3nc2C(=O)O)cc1F
REMARK SMILES IDX 8 1 7 3 6 4 3 5 4 6 27 7 5 8 26 9 28 10 2 11 1 12 9 13 10 14
REMARK SMILES IDX 22 15 11 16 21 17 12 18 20 19 13 20 19 21 18 22 23 23 24 24
REMARK SMILES IDX 25 25 14 27 15 28 16 29 17 30
REMARK H PARENT 8 2 25 26
ROOT
ATOM      1  N   UNL     1      17.465 -22.449   2.149  1.00  0.00    -0.364 N 
ATOM      2  H   UNL     1      18.342 -22.016   1.857  1.00  0.00    +0.162 HD
ENDROOT
BRANCH   1   3
ATOM      3  C   UNL     1      16.491 -22.373   1.058  1.00  0.00    +0.150 C 
BRANCH   3   4
ATOM      4  C   UNL     1      17.185 -21.969  -0.224  1.00  0.00    -0.026 A 
ATOM      5  C   UNL     1      18.437 -21.239  -2.649  1.00  0.00    +0.154 A 
ATOM      6  C   UNL     1      18.501 -22.557  -2.192  1.00  0.00    +0.050 A 
ATOM      7  C   UNL     1      17.736 -20.300  -1.885  1.00  0.00    +0.165 A 
ATOM      8  C   UNL     1      17.877 -22.919  -0.990  1.00  0.00    +0.009 A 
ATOM      9  C   UNL     1      17.112 -20.652  -0.691  1.00  0.00    +0.048 A 
ATOM     10  F   UNL     1      17.649 -19.027  -2.300  1.00  0.00    -0.203 F 
BRANCH   5  11
ATOM     11  O   UNL     1      19.004 -20.767  -3.801  1.00  0.00    -0.494 OA
ATOM     12  C   UNL     1      19.904 -21.629  -4.484  1.00  0.00    +0.278 C 
ENDBRANCH   5  11
ENDBRANCH   3   4
ENDBRANCH   1   3
BRANCH   1  13
ATOM     13  C   UNL     1      17.109 -21.749   3.299  1.00  0.00    +0.160 A 
ATOM     14  N   UNL     1      16.143 -20.825   3.068  1.00  0.00    -0.227 NA
ATOM     15  C   UNL     1      17.655 -21.887   4.581  1.00  0.00    +0.191 A 
ATOM     16  C   UNL     1      15.725 -20.070   4.100  1.00  0.00    +0.092 A 
ATOM     17  N   UNL     1      17.226 -21.130   5.638  1.00  0.00    -0.236 NA
ATOM     18  C   UNL     1      14.734 -19.117   3.890  1.00  0.00    +0.043 A 
ATOM     19  C   UNL     1      16.268 -20.226   5.392  1.00  0.00    +0.090 A 
ATOM     20  C   UNL     1      14.253 -18.309   4.933  1.00  0.00    +0.058 A 
ATOM     21  C   UNL     1      15.801 -19.422   6.424  1.00  0.00    +0.031 A 
ATOM     22  C   UNL     1      14.805 -18.467   6.207  1.00  0.00    +0.015 A 
BRANCH  15  23
ATOM     23  C   UNL     1      18.769 -22.840   4.884  1.00  0.00    +0.358 C 
ATOM     24  O   UNL     1      18.944 -23.961   4.444  1.00  0.00    -0.244 OA
BRANCH  23  25
ATOM     25  O   UNL     1      19.647 -22.331   5.780  1.00  0.00    -0.476 OA
ATOM     26  H   UNL     1      19.259 -22.544   6.652  1.00  0.00    +0.297 HD
ENDBRANCH  23  25
ENDBRANCH  15  23
BRANCH  20  27
ATOM     27  C   UNL     1      13.191 -17.271   4.663  1.00  0.00    +0.416 C 
ATOM     28  F   UNL     1      11.930 -17.777   4.736  1.00  0.00    -0.166 F 
ATOM     29  F   UNL     1      13.309 -16.724   3.423  1.00  0.00    -0.166 F 
ATOM     30  F   UNL     1      13.227 -16.230   5.540  1.00  0.00    -0.166 F 
ENDBRANCH  20  27
ENDBRANCH   1  13
TORSDOF 7
ENDMDL
MODEL 5
REMARK VINA RESULT:    -8.884      2.440      3.114
REMARK INTER + INTRA:         -13.224
REMARK INTER:                 -12.320
REMARK INTRA:                  -0.904
REMARK UNBOUND:                -0.964
REMARK SMILES COc1ccc(CNc2nc3cc(C(F)(F)F)ccc3nc2C(=O)O)cc1F
REMARK SMILES IDX 8 1 7 3 6 4 3 5 4 6 27 7 5 8 26 9 28 10 2 11 1 12 9 13 10 14
REMARK SMILES IDX 22 15 11 16 21 17 12 18 20 19 13 20 19 21 18 22 23 23 24 24
REMARK SMILES IDX 25 25 14 27 15 28 16 29 17 30
REMARK H PARENT 8 2 25 26
ROOT
ATOM      1  N   UNL     1      17.733 -21.038   1.074  1.00  0.00    -0.364 N 
ATOM      2  H   UNL     1      17.329 -21.559   0.295  1.00  0.00    +0.162 HD
ENDROOT
BRANCH   1   3
ATOM      3  C   UNL     1      17.821 -21.901   2.254  1.00  0.00    +0.150 C 
BRANCH   3   4
ATOM      4  C   UNL     1      19.228 -22.437   2.395  1.00  0.00    -0.026 A 
ATOM      5  C   UNL     1      21.871 -23.391   2.689  1.00  0.00    +0.154 A 
ATOM      6  C   UNL     1      21.590 -22.362   1.788  1.00  0.00    +0.050 A 
ATOM      7  C   UNL     1      20.821 -23.926   3.441  1.00  0.00    +0.165 A 
ATOM      8  C   UNL     1      20.279 -21.887   1.644  1.00  0.00    +0.009 A 
ATOM      9  C   UNL     1      19.516 -23.458   3.306  1.00  0.00    +0.048 A 
ATOM     10  F   UNL     1      21.058 -24.910   4.323  1.00  0.00    -0.203 F 
BRANCH   5  11
ATOM     11  O   UNL     1      23.106 -23.936   2.916  1.00  0.00    -0.494 OA
ATOM     12  C   UNL     1      23.994 -23.211   3.756  1.00  0.00    +0.278 C 
ENDBRANCH   5  11
ENDBRANCH   3   4
ENDBRANCH   1   3
BRANCH   1  13
ATOM     13  C   UNL     1      16.891 -19.937   1.218  1.00  0.00    +0.160 A 
ATOM     14  N   UNL     1      16.242 -19.931   2.407  1.00  0.00    -0.227 NA
ATOM     15  C   UNL     1      16.650 -18.924   0.281  1.00  0.00    +0.191 A 
ATOM     16  C   UNL     1      15.384 -18.925   2.659  1.00  0.00    +0.092 A 
ATOM     17  N   UNL     1      15.788 -17.892   0.534  1.00  0.00    -0.236 NA
ATOM     18  C   UNL     1      14.707 -18.893   3.873  1.00  0.00    +0.043 A 
ATOM     19  C   UNL     1      15.159 -17.899   1.718  1.00  0.00    +0.090 A 
ATOM     20  C   UNL     1      13.808 -17.862   4.192  1.00  0.00    +0.058 A 
ATOM     21  C   UNL     1      14.264 -16.883   2.026  1.00  0.00    +0.031 A 
ATOM     22  C   UNL     1      13.587 -16.856   3.248  1.00  0.00    +0.015 A 
BRANCH  15  23
ATOM     23  C   UNL     1      17.284 -18.913  -1.075  1.00  0.00    +0.358 C 
ATOM     24  O   UNL     1      18.051 -18.091  -1.543  1.00  0.00    -0.244 OA
BRANCH  23  25
ATOM     25  O   UNL     1      16.899 -19.970  -1.827  1.00  0.00    -0.476 OA
ATOM     26  H   UNL     1      17.681 -20.558  -1.843  1.00  0.00    +0.297 HD
ENDBRANCH  23  25
ENDBRANCH  15  23
BRANCH  20  27
ATOM     27  C   UNL     1      13.075 -17.873   5.511  1.00  0.00    +0.416 C 
ATOM     28  F   UNL     1      12.628 -16.639   5.874  1.00  0.00    -0.166 F 
ATOM     29  F   UNL     1      13.860 -18.306   6.534  1.00  0.00    -0.166 F 
ATOM     30  F   UNL     1      11.979 -18.680   5.507  1.00  0.00    -0.166 F 
ENDBRANCH  20  27
ENDBRANCH   1  13
TORSDOF 7
ENDMDL
MODEL 6
REMARK VINA RESULT:    -8.681      2.565      2.961
REMARK INTER + INTRA:         -12.944
REMARK INTER:                 -12.004
REMARK INTRA:                  -0.940
REMARK UNBOUND:                -0.964
REMARK SMILES COc1ccc(CNc2nc3cc(C(F)(F)F)ccc3nc2C(=O)O)cc1F
REMARK SMILES IDX 8 1 7 3 6 4 3 5 4 6 27 7 5 8 26 9 28 10 2 11 1 12 9 13 10 14
REMARK SMILES IDX 22 15 11 16 21 17 12 18 20 19 13 20 19 21 18 22 23 23 24 24
REMARK SMILES IDX 25 25 14 27 15 28 16 29 17 30
REMARK H PARENT 8 2 25 26
ROOT
ATOM      1  N   UNL     1      17.614 -21.123   0.981  1.00  0.00    -0.364 N 
ATOM      2  H   UNL     1      17.023 -21.895   1.295  1.00  0.00    +0.162 HD
ENDROOT
BRANCH   1   3
ATOM      3  C   UNL     1      18.861 -21.113   1.748  1.00  0.00    +0.150 C 
BRANCH   3   4
ATOM      4  C   UNL     1      19.921 -21.907   1.016  1.00  0.00    -0.026 A 
ATOM      5  C   UNL     1      21.881 -23.439  -0.323  1.00  0.00    +0.154 A 
ATOM      6  C   UNL     1      22.060 -23.080   1.014  1.00  0.00    +0.050 A 
ATOM      7  C   UNL     1      20.712 -23.031  -0.974  1.00  0.00    +0.165 A 
ATOM      8  C   UNL     1      21.085 -22.323   1.679  1.00  0.00    +0.009 A 
ATOM      9  C   UNL     1      19.738 -22.280  -0.320  1.00  0.00    +0.048 A 
ATOM     10  F   UNL     1      20.505 -23.365  -2.257  1.00  0.00    -0.203 F 
BRANCH   5  11
ATOM     11  O   UNL     1      22.757 -24.172  -1.076  1.00  0.00    -0.494 OA
ATOM     12  C   UNL     1      23.843 -23.476  -1.672  1.00  0.00    +0.278 C 
ENDBRANCH   5  11
ENDBRANCH   3   4
ENDBRANCH   1   3
BRANCH   1  13
ATOM     13  C   UNL     1      16.815 -19.994   1.151  1.00  0.00    +0.160 A 
ATOM     14  N   UNL     1      16.170 -19.988   2.343  1.00  0.00    -0.227 NA
ATOM     15  C   UNL     1      16.611 -18.953   0.236  1.00  0.00    +0.191 A 
ATOM     16  C   UNL     1      15.352 -18.956   2.619  1.00  0.00    +0.092 A 
ATOM     17  N   UNL     1      15.790 -17.894   0.515  1.00  0.00    -0.236 NA
ATOM     18  C   UNL     1      14.681 -18.924   3.835  1.00  0.00    +0.043 A 
ATOM     19  C   UNL     1      15.164 -17.902   1.700  1.00  0.00    +0.090 A 
ATOM     20  C   UNL     1      13.823 -17.866   4.180  1.00  0.00    +0.058 A 
ATOM     21  C   UNL     1      14.310 -16.859   2.033  1.00  0.00    +0.031 A 
ATOM     22  C   UNL     1      13.638 -16.832   3.258  1.00  0.00    +0.015 A 
BRANCH  15  23
ATOM     23  C   UNL     1      17.241 -18.937  -1.122  1.00  0.00    +0.358 C 
ATOM     24  O   UNL     1      18.003 -18.112  -1.591  1.00  0.00    -0.244 OA
BRANCH  23  25
ATOM     25  O   UNL     1      16.858 -19.995  -1.874  1.00  0.00    -0.476 OA
ATOM     26  H   UNL     1      17.576 -20.651  -1.759  1.00  0.00    +0.297 HD
ENDBRANCH  23  25
ENDBRANCH  15  23
BRANCH  20  27
ATOM     27  C   UNL     1      13.094 -17.876   5.501  1.00  0.00    +0.416 C 
ATOM     28  F   UNL     1      12.575 -16.660   5.824  1.00  0.00    -0.166 F 
ATOM     29  F   UNL     1      13.906 -18.229   6.534  1.00  0.00    -0.166 F 
ATOM     30  F   UNL     1      12.048 -18.747   5.527  1.00  0.00    -0.166 F 
ENDBRANCH  20  27
ENDBRANCH   1  13
TORSDOF 7
ENDMDL
MODEL 7
REMARK VINA RESULT:    -8.376      3.289      4.752
REMARK INTER + INTRA:         -12.522
REMARK INTER:                 -11.653
REMARK INTRA:                  -0.869
REMARK UNBOUND:                -0.964
REMARK SMILES COc1ccc(CNc2nc3cc(C(F)(F)F)ccc3nc2C(=O)O)cc1F
REMARK SMILES IDX 8 1 7 3 6 4 3 5 4 6 27 7 5 8 26 9 28 10 2 11 1 12 9 13 10 14
REMARK SMILES IDX 22 15 11 16 21 17 12 18 20 19 13 20 19 21 18 22 23 23 24 24
REMARK SMILES IDX 25 25 14 27 15 28 16 29 17 30
REMARK H PARENT 8 2 25 26
ROOT
ATOM      1  N   UNL     1      17.700 -22.062   1.809  1.00  0.00    -0.364 N 
ATOM      2  H   UNL     1      18.715 -22.034   1.911  1.00  0.00    +0.162 HD
ENDROOT
BRANCH   1   3
ATOM      3  C   UNL     1      17.301 -21.300   0.624  1.00  0.00    +0.150 C 
BRANCH   3   4
ATOM      4  C   UNL     1      18.206 -21.645  -0.537  1.00  0.00    -0.026 A 
ATOM      5  C   UNL     1      19.914 -22.233  -2.710  1.00  0.00    +0.154 A 
ATOM      6  C   UNL     1      18.688 -21.601  -2.929  1.00  0.00    +0.050 A 
ATOM      7  C   UNL     1      20.274 -22.558  -1.399  1.00  0.00    +0.165 A 
ATOM      8  C   UNL     1      17.843 -21.306  -1.850  1.00  0.00    +0.009 A 
ATOM      9  C   UNL     1      19.441 -22.267  -0.321  1.00  0.00    +0.048 A 
ATOM     10  F   UNL     1      21.448 -23.159  -1.153  1.00  0.00    -0.203 F 
BRANCH   5  11
ATOM     11  O   UNL     1      20.820 -22.571  -3.678  1.00  0.00    -0.494 OA
ATOM     12  C   UNL     1      20.564 -23.753  -4.425  1.00  0.00    +0.278 C 
ENDBRANCH   5  11
ENDBRANCH   3   4
ENDBRANCH   1   3
BRANCH   1  13
ATOM     13  C   UNL     1      17.224 -21.556   3.016  1.00  0.00    +0.160 A 
ATOM     14  N   UNL     1      16.299 -20.580   2.843  1.00  0.00    -0.227 NA
ATOM     15  C   UNL     1      17.624 -21.922   4.308  1.00  0.00    +0.191 A 
ATOM     16  C   UNL     1      15.775 -19.997   3.937  1.00  0.00    +0.092 A 
ATOM     17  N   UNL     1      17.087 -21.343   5.425  1.00  0.00    -0.236 NA
ATOM     18  C   UNL     1      14.823 -18.996   3.787  1.00  0.00    +0.043 A 
ATOM     19  C   UNL     1      16.170 -20.384   5.235  1.00  0.00    +0.090 A 
ATOM     20  C   UNL     1      14.236 -18.362   4.894  1.00  0.00    +0.058 A 
ATOM     21  C   UNL     1      15.599 -19.752   6.332  1.00  0.00    +0.031 A 
ATOM     22  C   UNL     1      14.641 -18.747   6.174  1.00  0.00    +0.015 A 
BRANCH  15  23
ATOM     23  C   UNL     1      18.689 -22.943   4.563  1.00  0.00    +0.358 C 
ATOM     24  O   UNL     1      18.790 -24.062   4.094  1.00  0.00    -0.244 OA
BRANCH  23  25
ATOM     25  O   UNL     1      19.614 -22.505   5.447  1.00  0.00    -0.476 OA
ATOM     26  H   UNL     1      19.306 -22.841   6.313  1.00  0.00    +0.297 HD
ENDBRANCH  23  25
ENDBRANCH  15  23
BRANCH  20  27
ATOM     27  C   UNL     1      13.220 -17.264   4.691  1.00  0.00    +0.416 C 
ATOM     28  F   UNL     1      11.945 -17.678   4.926  1.00  0.00    -0.166 F 
ATOM     29  F   UNL     1      13.233 -16.777   3.421  1.00  0.00    -0.166 F 
ATOM     30  F   UNL     1      13.421 -16.194   5.509  1.00  0.00    -0.166 F 
ENDBRANCH  20  27
ENDBRANCH   1  13
TORSDOF 7
ENDMDL
MODEL 8
REMARK VINA RESULT:    -8.331      3.989      7.482
REMARK INTER + INTRA:         -12.460
REMARK INTER:                 -11.454
REMARK INTRA:                  -1.006
REMARK UNBOUND:                -0.964
REMARK SMILES COc1ccc(CNc2nc3cc(C(F)(F)F)ccc3nc2C(=O)O)cc1F
REMARK SMILES IDX 8 1 7 3 6 4 3 5 4 6 27 7 5 8 26 9 28 10 2 11 1 12 9 13 10 14
REMARK SMILES IDX 22 15 11 16 21 17 12 18 20 19 13 20 19 21 18 22 23 23 24 24
REMARK SMILES IDX 25 25 14 27 15 28 16 29 17 30
REMARK H PARENT 8 2 25 26
ROOT
ATOM      1  N   UNL     1      18.759 -22.263   4.638  1.00  0.00    -0.364 N 
ATOM      2  H   UNL     1      19.505 -22.693   5.187  1.00  0.00    +0.162 HD
ENDROOT
BRANCH   1   3
ATOM      3  C   UNL     1      17.487 -22.929   4.928  1.00  0.00    +0.150 C 
BRANCH   3   4
ATOM      4  C   UNL     1      16.407 -21.895   5.156  1.00  0.00    -0.026 A 
ATOM      5  C   UNL     1      14.406 -19.937   5.534  1.00  0.00    +0.154 A 
ATOM      6  C   UNL     1      15.741 -19.644   5.819  1.00  0.00    +0.050 A 
ATOM      7  C   UNL     1      14.089 -21.211   5.054  1.00  0.00    +0.165 A 
ATOM      8  C   UNL     1      16.733 -20.615   5.628  1.00  0.00    +0.009 A 
ATOM      9  C   UNL     1      15.070 -22.181   4.860  1.00  0.00    +0.048 A 
ATOM     10  F   UNL     1      12.817 -21.524   4.763  1.00  0.00    -0.203 F 
BRANCH   5  11
ATOM     11  O   UNL     1      13.352 -19.076   5.680  1.00  0.00    -0.494 OA
ATOM     12  C   UNL     1      13.656 -17.718   5.971  1.00  0.00    +0.278 C 
ENDBRANCH   5  11
ENDBRANCH   3   4
ENDBRANCH   1   3
BRANCH   1  13
ATOM     13  C   UNL     1      19.195 -22.385   3.320  1.00  0.00    +0.160 A 
ATOM     14  N   UNL     1      18.453 -21.648   2.457  1.00  0.00    -0.227 NA
ATOM     15  C   UNL     1      20.244 -23.181   2.842  1.00  0.00    +0.191 A 
ATOM     16  C   UNL     1      18.765 -21.695   1.149  1.00  0.00    +0.092 A 
ATOM     17  N   UNL     1      20.574 -23.224   1.515  1.00  0.00    -0.236 NA
ATOM     18  C   UNL     1      18.022 -20.947   0.243  1.00  0.00    +0.043 A 
ATOM     19  C   UNL     1      19.834 -22.486   0.677  1.00  0.00    +0.090 A 
ATOM     20  C   UNL     1      18.310 -20.951  -1.131  1.00  0.00    +0.058 A 
ATOM     21  C   UNL     1      20.116 -22.499  -0.683  1.00  0.00    +0.031 A 
ATOM     22  C   UNL     1      19.365 -21.745  -1.588  1.00  0.00    +0.015 A 
BRANCH  15  23
ATOM     23  C   UNL     1      21.054 -24.067   3.736  1.00  0.00    +0.358 C 
ATOM     24  O   UNL     1      21.187 -25.276   3.681  1.00  0.00    -0.244 OA
BRANCH  23  25
ATOM     25  O   UNL     1      21.679 -23.372   4.714  1.00  0.00    -0.476 OA
ATOM     26  H   UNL     1      22.620 -23.360   4.445  1.00  0.00    +0.297 HD
ENDBRANCH  23  25
ENDBRANCH  15  23
BRANCH  20  27
ATOM     27  C   UNL     1      17.468 -20.142  -2.088  1.00  0.00    +0.416 C 
ATOM     28  F   UNL     1      17.771 -20.388  -3.392  1.00  0.00    -0.166 F 
ATOM     29  F   UNL     1      17.625 -18.803  -1.908  1.00  0.00    -0.166 F 
ATOM     30  F   UNL     1      16.134 -20.387  -1.963  1.00  0.00    -0.166 F 
ENDBRANCH  20  27
ENDBRANCH   1  13
TORSDOF 7
ENDMDL
MODEL 9
REMARK VINA RESULT:    -8.305      2.840      3.720
REMARK INTER + INTRA:         -12.425
REMARK INTER:                 -11.361
REMARK INTRA:                  -1.063
REMARK UNBOUND:                -0.964
REMARK SMILES COc1ccc(CNc2nc3cc(C(F)(F)F)ccc3nc2C(=O)O)cc1F
REMARK SMILES IDX 8 1 7 3 6 4 3 5 4 6 27 7 5 8 26 9 28 10 2 11 1 12 9 13 10 14
REMARK SMILES IDX 22 15 11 16 21 17 12 18 20 19 13 20 19 21 18 22 23 23 24 24
REMARK SMILES IDX 25 25 14 27 15 28 16 29 17 30
REMARK H PARENT 8 2 25 26
ROOT
ATOM      1  N   UNL     1      18.122 -21.794   1.776  1.00  0.00    -0.364 N 
ATOM      2  H   UNL     1      18.402 -20.899   1.370  1.00  0.00    +0.162 HD
ENDROOT
BRANCH   1   3
ATOM      3  C   UNL     1      17.289 -22.529   0.822  1.00  0.00    +0.150 C 
BRANCH   3   4
ATOM      4  C   UNL     1      17.809 -23.941   0.668  1.00  0.00    -0.026 A 
ATOM      5  C   UNL     1      18.799 -26.577   0.435  1.00  0.00    +0.154 A 
ATOM      6  C   UNL     1      19.676 -25.490   0.410  1.00  0.00    +0.050 A 
ATOM      7  C   UNL     1      17.432 -26.328   0.585  1.00  0.00    +0.165 A 
ATOM      8  C   UNL     1      19.185 -24.183   0.529  1.00  0.00    +0.009 A 
ATOM      9  C   UNL     1      16.935 -25.032   0.705  1.00  0.00    +0.048 A 
ATOM     10  F   UNL     1      16.562 -27.350   0.621  1.00  0.00    -0.203 F 
BRANCH   5  11
ATOM     11  O   UNL     1      19.158 -27.893   0.328  1.00  0.00    -0.494 OA
ATOM     12  C   UNL     1      19.839 -28.288  -0.856  1.00  0.00    +0.278 C 
ENDBRANCH   5  11
ENDBRANCH   3   4
ENDBRANCH   1   3
BRANCH   1  13
ATOM     13  C   UNL     1      17.481 -21.442   2.961  1.00  0.00    +0.160 A 
ATOM     14  N   UNL     1      16.561 -20.463   2.784  1.00  0.00    -0.227 NA
ATOM     15  C   UNL     1      17.719 -21.958   4.242  1.00  0.00    +0.191 A 
ATOM     16  C   UNL     1      15.884 -20.022   3.861  1.00  0.00    +0.092 A 
ATOM     17  N   UNL     1      17.026 -21.523   5.339  1.00  0.00    -0.236 NA
ATOM     18  C   UNL     1      14.933 -19.021   3.706  1.00  0.00    +0.043 A 
ATOM     19  C   UNL     1      16.117 -20.559   5.144  1.00  0.00    +0.090 A 
ATOM     20  C   UNL     1      14.190 -18.531   4.792  1.00  0.00    +0.058 A 
ATOM     21  C   UNL     1      15.391 -20.070   6.223  1.00  0.00    +0.031 A 
ATOM     22  C   UNL     1      14.436 -19.064   6.061  1.00  0.00    +0.015 A 
BRANCH  15  23
ATOM     23  C   UNL     1      18.769 -22.990   4.512  1.00  0.00    +0.358 C 
ATOM     24  O   UNL     1      18.875 -24.103   4.031  1.00  0.00    -0.244 OA
BRANCH  23  25
ATOM     25  O   UNL     1      19.672 -22.572   5.428  1.00  0.00    -0.476 OA
ATOM     26  H   UNL     1      20.138 -21.829   4.993  1.00  0.00    +0.297 HD
ENDBRANCH  23  25
ENDBRANCH  15  23
BRANCH  20  27
ATOM     27  C   UNL     1      13.180 -17.428   4.589  1.00  0.00    +0.416 C 
ATOM     28  F   UNL     1      13.225 -16.899   3.335  1.00  0.00    -0.166 F 
ATOM     29  F   UNL     1      13.373 -16.389   5.445  1.00  0.00    -0.166 F 
ATOM     30  F   UNL     1      11.896 -17.838   4.776  1.00  0.00    -0.166 F 
ENDBRANCH  20  27
ENDBRANCH   1  13
TORSDOF 7
ENDMDL
