MODEL 1
REMARK VINA RESULT:    -8.746      0.000      0.000
REMARK INTER + INTRA:         -12.097
REMARK INTER:                 -11.047
REMARK INTRA:                  -1.050
REMARK UNBOUND:                -1.050
REMARK SMILES CC1(c2ccc(C#N)cc2)NC(=O)N(CC(=O)c2ccc(F)cc2O)C1=O
REMARK SMILES IDX 16 1 17 2 15 3 14 4 2 5 11 6 26 7 12 8 27 9 13 10 1 11 3 13
REMARK SMILES IDX 4 14 10 15 5 16 9 17 6 18 7 19 8 20 18 21 19 22 24 23 20 24
REMARK SMILES IDX 23 25 21 26 22 27 25 28
REMARK H PARENT 11 12 25 29
ROOT
ATOM      1  C   UNL     1      16.074 -19.758   2.894  1.00  0.00    +0.186 C 
ATOM      2  O   UNL     1      16.118 -20.931   3.272  1.00  0.00    -0.292 OA
ENDROOT
BRANCH   1   3
ATOM      3  C   UNL     1      17.108 -19.166   1.940  1.00  0.00    +0.211 C 
BRANCH   3   4
ATOM      4  N   UNL     1      17.334 -20.101   0.858  1.00  0.00    -0.254 N 
ATOM      5  C   UNL     1      18.149 -21.929  -0.407  1.00  0.00    +0.144 C 
ATOM      6  N   UNL     1      16.977 -21.297  -0.979  1.00  0.00    -0.319 N 
ATOM      7  C   UNL     1      18.320 -21.049   0.855  1.00  0.00    +0.261 C 
ATOM      8  C   UNL     1      16.502 -20.265  -0.205  1.00  0.00    +0.325 C 
ATOM      9  O   UNL     1      19.195 -21.173   1.704  1.00  0.00    -0.271 OA
ATOM     10  O   UNL     1      15.495 -19.629  -0.466  1.00  0.00    -0.248 OA
ATOM     11  C   UNL     1      19.353 -21.669  -1.321  1.00  0.00    +0.051 C 
ATOM     12  H   UNL     1      16.437 -21.655  -1.756  1.00  0.00    +0.166 HD
BRANCH   5  13
ATOM     13  C   UNL     1      17.860 -23.389  -0.064  1.00  0.00    -0.013 A 
ATOM     14  C   UNL     1      18.919 -24.260   0.267  1.00  0.00    +0.008 A 
ATOM     15  C   UNL     1      16.558 -23.918  -0.055  1.00  0.00    +0.008 A 
ATOM     16  C   UNL     1      18.688 -25.602   0.586  1.00  0.00    +0.020 A 
ATOM     17  C   UNL     1      16.325 -25.262   0.264  1.00  0.00    +0.020 A 
ATOM     18  C   UNL     1      17.389 -26.108   0.584  1.00  0.00    +0.052 A 
ATOM     19  C   UNL     1      17.146 -27.482   0.909  1.00  0.00    +0.099 C 
ATOM     20  N   UNL     1      16.944 -28.594   1.175  1.00  0.00    -0.192 NA
ENDBRANCH   5  13
ENDBRANCH   3   4
ENDBRANCH   1   3
BRANCH   1  21
ATOM     21  C   UNL     1      14.975 -18.887   3.410  1.00  0.00    +0.061 A 
ATOM     22  C   UNL     1      14.509 -17.870   2.555  1.00  0.00    +0.019 A 
ATOM     23  C   UNL     1      14.400 -19.017   4.683  1.00  0.00    +0.129 A 
ATOM     24  C   UNL     1      13.482 -17.016   2.960  1.00  0.00    +0.040 A 
ATOM     25  C   UNL     1      13.372 -18.162   5.087  1.00  0.00    +0.086 A 
ATOM     26  C   UNL     1      12.923 -17.172   4.220  1.00  0.00    +0.126 A 
ATOM     27  F   UNL     1      11.938 -16.353   4.613  1.00  0.00    -0.207 F 
BRANCH  23  28
ATOM     28  O   UNL     1      14.845 -19.967   5.558  1.00  0.00    -0.507 OA
ATOM     29  H   UNL     1      14.375 -20.806   5.399  1.00  0.00    +0.293 HD
ENDBRANCH  23  28
ENDBRANCH   1  21
TORSDOF 5
ENDMDL
MODEL 2
REMARK VINA RESULT:    -8.591      2.849      6.085
REMARK INTER + INTRA:         -11.901
REMARK INTER:                 -10.108
REMARK INTRA:                  -1.792
REMARK UNBOUND:                -1.050
REMARK SMILES CC1(c2ccc(C#N)cc2)NC(=O)N(CC(=O)c2ccc(F)cc2O)C1=O
REMARK SMILES IDX 16 1 17 2 15 3 14 4 2 5 11 6 26 7 12 8 27 9 13 10 1 11 3 13
REMARK SMILES IDX 4 14 10 15 5 16 9 17 6 18 7 19 8 20 18 21 19 22 24 23 20 24
REMARK SMILES IDX 23 25 21 26 22 27 25 28
REMARK H PARENT 11 12 25 29
ROOT
ATOM      1  C   UNL     1      18.278 -22.511  -1.529  1.00  0.00    +0.186 C 
ATOM      2  O   UNL     1      18.183 -22.950  -2.678  1.00  0.00    -0.292 OA
ENDROOT
BRANCH   1   3
ATOM      3  C   UNL     1      19.149 -23.177  -0.468  1.00  0.00    +0.211 C 
BRANCH   3   4
ATOM      4  N   UNL     1      18.360 -23.375   0.729  1.00  0.00    -0.254 N 
ATOM      5  C   UNL     1      17.451 -23.108   2.899  1.00  0.00    +0.144 C 
ATOM      6  N   UNL     1      16.682 -23.993   2.048  1.00  0.00    -0.319 N 
ATOM      7  C   UNL     1      18.580 -22.724   1.912  1.00  0.00    +0.261 C 
ATOM      8  C   UNL     1      17.210 -24.100   0.782  1.00  0.00    +0.325 C 
ATOM      9  O   UNL     1      19.517 -21.972   2.149  1.00  0.00    -0.271 OA
ATOM     10  O   UNL     1      16.697 -24.746  -0.115  1.00  0.00    -0.248 OA
ATOM     11  C   UNL     1      18.083 -23.927   4.031  1.00  0.00    +0.051 C 
ATOM     12  H   UNL     1      15.766 -24.364   2.261  1.00  0.00    +0.166 HD
BRANCH   5  13
ATOM     13  C   UNL     1      16.612 -21.903   3.320  1.00  0.00    -0.013 A 
ATOM     14  C   UNL     1      15.741 -22.001   4.426  1.00  0.00    +0.008 A 
ATOM     15  C   UNL     1      16.671 -20.670   2.649  1.00  0.00    +0.008 A 
ATOM     16  C   UNL     1      14.959 -20.917   4.838  1.00  0.00    +0.020 A 
ATOM     17  C   UNL     1      15.888 -19.583   3.060  1.00  0.00    +0.020 A 
ATOM     18  C   UNL     1      15.030 -19.704   4.154  1.00  0.00    +0.052 A 
ATOM     19  C   UNL     1      14.230 -18.590   4.571  1.00  0.00    +0.099 C 
ATOM     20  N   UNL     1      13.587 -17.684   4.906  1.00  0.00    -0.192 NA
ENDBRANCH   5  13
ENDBRANCH   3   4
ENDBRANCH   1   3
BRANCH   1  21
ATOM     21  C   UNL     1      17.491 -21.293  -1.168  1.00  0.00    +0.061 A 
ATOM     22  C   UNL     1      18.220 -20.143  -0.811  1.00  0.00    +0.019 A 
ATOM     23  C   UNL     1      16.090 -21.237  -1.154  1.00  0.00    +0.129 A 
ATOM     24  C   UNL     1      17.562 -18.962  -0.464  1.00  0.00    +0.040 A 
ATOM     25  C   UNL     1      15.431 -20.055  -0.807  1.00  0.00    +0.086 A 
ATOM     26  C   UNL     1      16.175 -18.930  -0.468  1.00  0.00    +0.126 A 
ATOM     27  F   UNL     1      15.538 -17.799  -0.135  1.00  0.00    -0.207 F 
BRANCH  23  28
ATOM     28  O   UNL     1      15.342 -22.339  -1.459  1.00  0.00    -0.507 OA
ATOM     29  H   UNL     1      14.476 -22.281  -1.017  1.00  0.00    +0.293 HD
ENDBRANCH  23  28
ENDBRANCH   1  21
TORSDOF 5
ENDMDL
MODEL 3
REMARK VINA RESULT:    -8.462      2.551      3.858
REMARK INTER + INTRA:         -11.739
REMARK INTER:                 -10.775
REMARK INTRA:                  -0.963
REMARK UNBOUND:                -1.050
REMARK SMILES CC1(c2ccc(C#N)cc2)NC(=O)N(CC(=O)c2ccc(F)cc2O)C1=O
REMARK SMILES IDX 16 1 17 2 15 3 14 4 2 5 11 6 26 7 12 8 27 9 13 10 1 11 3 13
REMARK SMILES IDX 4 14 10 15 5 16 9 17 6 18 7 19 8 20 18 21 19 22 24 23 20 24
REMARK SMILES IDX 23 25 21 26 22 27 25 28
REMARK H PARENT 11 12 25 29
ROOT
ATOM      1  C   UNL     1      15.498 -18.744   2.152  1.00  0.00    +0.186 C 
ATOM      2  O   UNL     1      15.016 -18.430   1.061  1.00  0.00    -0.292 OA
ENDROOT
BRANCH   1   3
ATOM      3  C   UNL     1      16.897 -19.338   2.287  1.00  0.00    +0.211 C 
BRANCH   3   4
ATOM      4  N   UNL     1      17.020 -20.457   1.377  1.00  0.00    -0.254 N 
ATOM      5  C   UNL     1      17.556 -21.773  -0.517  1.00  0.00    +0.144 C 
ATOM      6  N   UNL     1      17.175 -22.549   0.646  1.00  0.00    -0.319 N 
ATOM      7  C   UNL     1      17.429 -20.349   0.076  1.00  0.00    +0.261 C 
ATOM      8  C   UNL     1      16.908 -21.762   1.742  1.00  0.00    +0.325 C 
ATOM      9  O   UNL     1      17.648 -19.301  -0.519  1.00  0.00    -0.271 OA
ATOM     10  O   UNL     1      16.623 -22.205   2.841  1.00  0.00    -0.248 OA
ATOM     11  C   UNL     1      16.476 -21.925  -1.595  1.00  0.00    +0.051 C 
ATOM     12  H   UNL     1      17.259 -23.553   0.735  1.00  0.00    +0.166 HD
BRANCH   5  13
ATOM     13  C   UNL     1      18.986 -22.102  -0.939  1.00  0.00    -0.013 A 
ATOM     14  C   UNL     1      19.436 -21.766  -2.233  1.00  0.00    +0.008 A 
ATOM     15  C   UNL     1      19.901 -22.732  -0.078  1.00  0.00    +0.008 A 
ATOM     16  C   UNL     1      20.740 -22.054  -2.651  1.00  0.00    +0.020 A 
ATOM     17  C   UNL     1      21.207 -23.021  -0.494  1.00  0.00    +0.020 A 
ATOM     18  C   UNL     1      21.630 -22.684  -1.782  1.00  0.00    +0.052 A 
ATOM     19  C   UNL     1      22.966 -22.981  -2.204  1.00  0.00    +0.099 C 
ATOM     20  N   UNL     1      24.051 -23.222  -2.540  1.00  0.00    -0.192 NA
ENDBRANCH   5  13
ENDBRANCH   3   4
ENDBRANCH   1   3
BRANCH   1  21
ATOM     21  C   UNL     1      14.667 -18.548   3.378  1.00  0.00    +0.061 A 
ATOM     22  C   UNL     1      14.632 -19.608   4.303  1.00  0.00    +0.019 A 
ATOM     23  C   UNL     1      13.925 -17.390   3.648  1.00  0.00    +0.129 A 
ATOM     24  C   UNL     1      13.883 -19.504   5.476  1.00  0.00    +0.040 A 
ATOM     25  C   UNL     1      13.175 -17.286   4.823  1.00  0.00    +0.086 A 
ATOM     26  C   UNL     1      13.165 -18.344   5.725  1.00  0.00    +0.126 A 
ATOM     27  F   UNL     1      12.444 -18.240   6.849  1.00  0.00    -0.207 F 
BRANCH  23  28
ATOM     28  O   UNL     1      13.902 -16.350   2.763  1.00  0.00    -0.507 OA
ATOM     29  H   UNL     1      13.936 -15.505   3.247  1.00  0.00    +0.293 HD
ENDBRANCH  23  28
ENDBRANCH   1  21
TORSDOF 5
ENDMDL
MODEL 4
REMARK VINA RESULT:    -8.295      2.407      4.112
REMARK INTER + INTRA:         -11.528
REMARK INTER:                 -10.640
REMARK INTRA:                  -0.888
REMARK UNBOUND:                -1.050
REMARK SMILES CC1(c2ccc(C#N)cc2)NC(=O)N(CC(=O)c2ccc(F)cc2O)C1=O
REMARK SMILES IDX 16 1 17 2 15 3 14 4 2 5 11 6 26 7 12 8 27 9 13 10 1 11 3 13
REMARK SMILES IDX 4 14 10 15 5 16 9 17 6 18 7 19 8 20 18 21 19 22 24 23 20 24
REMARK SMILES IDX 23 25 21 26 22 27 25 28
REMARK H PARENT 11 12 25 29
ROOT
ATOM      1  C   UNL     1      15.763 -20.155   3.707  1.00  0.00    +0.186 C 
ATOM      2  O   UNL     1      16.629 -19.849   2.882  1.00  0.00    -0.292 OA
ENDROOT
BRANCH   1   3
ATOM      3  C   UNL     1      15.670 -21.552   4.313  1.00  0.00    +0.211 C 
BRANCH   3   4
ATOM      4  N   UNL     1      16.732 -22.371   3.769  1.00  0.00    -0.254 N 
ATOM      5  C   UNL     1      18.028 -23.689   2.290  1.00  0.00    +0.144 C 
ATOM      6  N   UNL     1      18.756 -23.232   3.457  1.00  0.00    -0.319 N 
ATOM      7  C   UNL     1      16.651 -23.046   2.582  1.00  0.00    +0.261 C 
ATOM      8  C   UNL     1      17.992 -22.437   4.278  1.00  0.00    +0.325 C 
ATOM      9  O   UNL     1      15.654 -23.133   1.876  1.00  0.00    -0.271 OA
ATOM     10  O   UNL     1      18.415 -21.898   5.286  1.00  0.00    -0.248 OA
ATOM     11  C   UNL     1      17.857 -25.211   2.372  1.00  0.00    +0.051 C 
ATOM     12  H   UNL     1      19.754 -23.315   3.596  1.00  0.00    +0.166 HD
BRANCH   5  13
ATOM     13  C   UNL     1      18.665 -23.146   1.012  1.00  0.00    -0.013 A 
ATOM     14  C   UNL     1      19.384 -24.009   0.159  1.00  0.00    +0.008 A 
ATOM     15  C   UNL     1      18.562 -21.797   0.631  1.00  0.00    +0.008 A 
ATOM     16  C   UNL     1      19.979 -23.544  -1.019  1.00  0.00    +0.020 A 
ATOM     17  C   UNL     1      19.157 -21.329  -0.547  1.00  0.00    +0.020 A 
ATOM     18  C   UNL     1      19.868 -22.201  -1.374  1.00  0.00    +0.052 A 
ATOM     19  C   UNL     1      20.476 -21.718  -2.579  1.00  0.00    +0.099 C 
ATOM     20  N   UNL     1      20.964 -21.322  -3.555  1.00  0.00    -0.192 NA
ENDBRANCH   5  13
ENDBRANCH   3   4
ENDBRANCH   1   3
BRANCH   1  21
ATOM     21  C   UNL     1      14.764 -19.119   4.106  1.00  0.00    +0.061 A 
ATOM     22  C   UNL     1      14.138 -19.281   5.356  1.00  0.00    +0.019 A 
ATOM     23  C   UNL     1      14.414 -18.017   3.311  1.00  0.00    +0.129 A 
ATOM     24  C   UNL     1      13.195 -18.355   5.805  1.00  0.00    +0.040 A 
ATOM     25  C   UNL     1      13.470 -17.090   3.761  1.00  0.00    +0.086 A 
ATOM     26  C   UNL     1      12.873 -17.268   5.005  1.00  0.00    +0.126 A 
ATOM     27  F   UNL     1      11.968 -16.377   5.431  1.00  0.00    -0.207 F 
BRANCH  23  28
ATOM     28  O   UNL     1      14.971 -17.839   2.077  1.00  0.00    -0.507 OA
ATOM     29  H   UNL     1      15.741 -18.427   1.976  1.00  0.00    +0.293 HD
ENDBRANCH  23  28
ENDBRANCH   1  21
TORSDOF 5
ENDMDL
MODEL 5
REMARK VINA RESULT:    -8.269      2.628      4.332
REMARK INTER + INTRA:         -11.494
REMARK INTER:                 -10.350
REMARK INTRA:                  -1.144
REMARK UNBOUND:                -1.050
REMARK SMILES CC1(c2ccc(C#N)cc2)NC(=O)N(CC(=O)c2ccc(F)cc2O)C1=O
REMARK SMILES IDX 16 1 17 2 15 3 14 4 2 5 11 6 26 7 12 8 27 9 13 10 1 11 3 13
REMARK SMILES IDX 4 14 10 15 5 16 9 17 6 18 7 19 8 20 18 21 19 22 24 23 20 24
REMARK SMILES IDX 23 25 21 26 22 27 25 28
REMARK H PARENT 11 12 25 29
ROOT
ATOM      1  C   UNL     1      16.460 -21.709   5.538  1.00  0.00    +0.186 C 
ATOM      2  O   UNL     1      16.168 -22.757   6.120  1.00  0.00    -0.292 OA
ENDROOT
BRANCH   1   3
ATOM      3  C   UNL     1      17.733 -21.561   4.710  1.00  0.00    +0.211 C 
BRANCH   3   4
ATOM      4  N   UNL     1      17.644 -22.432   3.557  1.00  0.00    -0.254 N 
ATOM      5  C   UNL     1      17.314 -23.221   1.350  1.00  0.00    +0.144 C 
ATOM      6  N   UNL     1      18.021 -24.153   2.204  1.00  0.00    -0.319 N 
ATOM      7  C   UNL     1      17.101 -22.065   2.356  1.00  0.00    +0.261 C 
ATOM      8  C   UNL     1      18.234 -23.654   3.468  1.00  0.00    +0.325 C 
ATOM      9  O   UNL     1      16.534 -21.005   2.123  1.00  0.00    -0.271 OA
ATOM     10  O   UNL     1      18.857 -24.244   4.335  1.00  0.00    -0.248 OA
ATOM     11  C   UNL     1      15.936 -23.802   1.010  1.00  0.00    +0.051 C 
ATOM     12  H   UNL     1      18.479 -25.001   1.897  1.00  0.00    +0.166 HD
BRANCH   5  13
ATOM     13  C   UNL     1      18.187 -22.809   0.166  1.00  0.00    -0.013 A 
ATOM     14  C   UNL     1      17.588 -22.393  -1.043  1.00  0.00    +0.008 A 
ATOM     15  C   UNL     1      19.591 -22.816   0.224  1.00  0.00    +0.008 A 
ATOM     16  C   UNL     1      18.359 -22.009  -2.145  1.00  0.00    +0.020 A 
ATOM     17  C   UNL     1      20.364 -22.431  -0.879  1.00  0.00    +0.020 A 
ATOM     18  C   UNL     1      19.751 -22.028  -2.066  1.00  0.00    +0.052 A 
ATOM     19  C   UNL     1      20.545 -21.636  -3.192  1.00  0.00    +0.099 C 
ATOM     20  N   UNL     1      21.193 -21.317  -4.101  1.00  0.00    -0.192 NA
ENDBRANCH   5  13
ENDBRANCH   3   4
ENDBRANCH   1   3
BRANCH   1  21
ATOM     21  C   UNL     1      15.537 -20.542   5.673  1.00  0.00    +0.061 A 
ATOM     22  C   UNL     1      16.102 -19.324   6.094  1.00  0.00    +0.019 A 
ATOM     23  C   UNL     1      14.159 -20.596   5.417  1.00  0.00    +0.129 A 
ATOM     24  C   UNL     1      15.309 -18.184   6.241  1.00  0.00    +0.040 A 
ATOM     25  C   UNL     1      13.366 -19.455   5.563  1.00  0.00    +0.086 A 
ATOM     26  C   UNL     1      13.951 -18.261   5.972  1.00  0.00    +0.126 A 
ATOM     27  F   UNL     1      13.186 -17.170   6.112  1.00  0.00    -0.207 F 
BRANCH  23  28
ATOM     28  O   UNL     1      13.562 -21.765   5.039  1.00  0.00    -0.507 OA
ATOM     29  H   UNL     1      13.509 -21.807   4.066  1.00  0.00    +0.293 HD
ENDBRANCH  23  28
ENDBRANCH   1  21
TORSDOF 5
ENDMDL
MODEL 6
REMARK VINA RESULT:    -7.938      2.954      5.762
REMARK INTER + INTRA:         -11.076
REMARK INTER:                  -9.905
REMARK INTRA:                  -1.172
REMARK UNBOUND:                -1.050
REMARK SMILES CC1(c2ccc(C#N)cc2)NC(=O)N(CC(=O)c2ccc(F)cc2O)C1=O
REMARK SMILES IDX 16 1 17 2 15 3 14 4 2 5 11 6 26 7 12 8 27 9 13 10 1 11 3 13
REMARK SMILES IDX 4 14 10 15 5 16 9 17 6 18 7 19 8 20 18 21 19 22 24 23 20 24
REMARK SMILES IDX 23 25 21 26 22 27 25 28
REMARK H PARENT 11 12 25 29
ROOT
ATOM      1  C   UNL     1      18.951 -24.183   3.496  1.00  0.00    +0.186 C 
ATOM      2  O   UNL     1      19.843 -24.599   4.240  1.00  0.00    -0.292 OA
ENDROOT
BRANCH   1   3
ATOM      3  C   UNL     1      18.817 -24.638   2.045  1.00  0.00    +0.211 C 
BRANCH   3   4
ATOM      4  N   UNL     1      18.935 -23.484   1.180  1.00  0.00    -0.254 N 
ATOM      5  C   UNL     1      18.402 -21.705  -0.289  1.00  0.00    +0.144 C 
ATOM      6  N   UNL     1      19.717 -21.596   0.309  1.00  0.00    -0.319 N 
ATOM      7  C   UNL     1      17.933 -23.025   0.370  1.00  0.00    +0.261 C 
ATOM      8  C   UNL     1      19.985 -22.620   1.187  1.00  0.00    +0.325 C 
ATOM      9  O   UNL     1      16.852 -23.573   0.190  1.00  0.00    -0.271 OA
ATOM     10  O   UNL     1      21.009 -22.699   1.845  1.00  0.00    -0.248 OA
ATOM     11  C   UNL     1      18.557 -21.966  -1.792  1.00  0.00    +0.051 C 
ATOM     12  H   UNL     1      20.323 -20.788   0.254  1.00  0.00    +0.166 HD
BRANCH   5  13
ATOM     13  C   UNL     1      17.530 -20.515   0.108  1.00  0.00    -0.013 A 
ATOM     14  C   UNL     1      17.406 -20.151   1.465  1.00  0.00    +0.008 A 
ATOM     15  C   UNL     1      16.835 -19.741  -0.837  1.00  0.00    +0.008 A 
ATOM     16  C   UNL     1      16.616 -19.066   1.861  1.00  0.00    +0.020 A 
ATOM     17  C   UNL     1      16.044 -18.655  -0.443  1.00  0.00    +0.020 A 
ATOM     18  C   UNL     1      15.931 -18.315   0.907  1.00  0.00    +0.052 A 
ATOM     19  C   UNL     1      15.120 -17.204   1.306  1.00  0.00    +0.099 C 
ATOM     20  N   UNL     1      14.464 -16.300   1.625  1.00  0.00    -0.192 NA
ENDBRANCH   5  13
ENDBRANCH   3   4
ENDBRANCH   1   3
BRANCH   1  21
ATOM     21  C   UNL     1      17.982 -23.184   4.039  1.00  0.00    +0.061 A 
ATOM     22  C   UNL     1      16.703 -23.148   3.452  1.00  0.00    +0.019 A 
ATOM     23  C   UNL     1      18.275 -22.288   5.077  1.00  0.00    +0.129 A 
ATOM     24  C   UNL     1      15.738 -22.246   3.904  1.00  0.00    +0.040 A 
ATOM     25  C   UNL     1      17.309 -21.386   5.530  1.00  0.00    +0.086 A 
ATOM     26  C   UNL     1      16.050 -21.377   4.939  1.00  0.00    +0.126 A 
ATOM     27  F   UNL     1      15.127 -20.509   5.375  1.00  0.00    -0.207 F 
BRANCH  23  28
ATOM     28  O   UNL     1      19.514 -22.265   5.653  1.00  0.00    -0.507 OA
ATOM     29  H   UNL     1      20.174 -21.968   5.000  1.00  0.00    +0.293 HD
ENDBRANCH  23  28
ENDBRANCH   1  21
TORSDOF 5
ENDMDL
MODEL 7
REMARK VINA RESULT:    -7.885      4.090      8.064
REMARK INTER + INTRA:         -11.010
REMARK INTER:                 -10.246
REMARK INTRA:                  -0.764
REMARK UNBOUND:                -1.050
REMARK SMILES CC1(c2ccc(C#N)cc2)NC(=O)N(CC(=O)c2ccc(F)cc2O)C1=O
REMARK SMILES IDX 16 1 17 2 15 3 14 4 2 5 11 6 26 7 12 8 27 9 13 10 1 11 3 13
REMARK SMILES IDX 4 14 10 15 5 16 9 17 6 18 7 19 8 20 18 21 19 22 24 23 20 24
REMARK SMILES IDX 23 25 21 26 22 27 25 28
REMARK H PARENT 11 12 25 29
ROOT
ATOM      1  C   UNL     1      19.285 -22.864  -1.020  1.00  0.00    +0.186 C 
ATOM      2  O   UNL     1      19.577 -23.901  -0.420  1.00  0.00    -0.292 OA
ENDROOT
BRANCH   1   3
ATOM      3  C   UNL     1      18.075 -22.014  -0.642  1.00  0.00    +0.211 C 
BRANCH   3   4
ATOM      4  N   UNL     1      17.544 -22.489   0.617  1.00  0.00    -0.254 N 
ATOM      5  C   UNL     1      17.031 -22.671   2.921  1.00  0.00    +0.144 C 
ATOM      6  N   UNL     1      16.207 -23.505   2.071  1.00  0.00    -0.319 N 
ATOM      7  C   UNL     1      17.915 -22.003   1.841  1.00  0.00    +0.261 C 
ATOM      8  C   UNL     1      16.499 -23.351   0.736  1.00  0.00    +0.325 C 
ATOM      9  O   UNL     1      18.804 -21.184   2.044  1.00  0.00    -0.271 OA
ATOM     10  O   UNL     1      15.893 -23.913  -0.161  1.00  0.00    -0.248 OA
ATOM     11  C   UNL     1      17.937 -23.567   3.774  1.00  0.00    +0.051 C 
ATOM     12  H   UNL     1      15.386 -24.016   2.367  1.00  0.00    +0.166 HD
BRANCH   5  13
ATOM     13  C   UNL     1      16.172 -21.659   3.678  1.00  0.00    -0.013 A 
ATOM     14  C   UNL     1      16.015 -20.350   3.175  1.00  0.00    +0.008 A 
ATOM     15  C   UNL     1      15.509 -21.978   4.875  1.00  0.00    +0.008 A 
ATOM     16  C   UNL     1      15.235 -19.400   3.844  1.00  0.00    +0.020 A 
ATOM     17  C   UNL     1      14.727 -21.028   5.545  1.00  0.00    +0.020 A 
ATOM     18  C   UNL     1      14.590 -19.737   5.032  1.00  0.00    +0.052 A 
ATOM     19  C   UNL     1      13.790 -18.768   5.722  1.00  0.00    +0.099 C 
ATOM     20  N   UNL     1      13.139 -17.988   6.283  1.00  0.00    -0.192 NA
ENDBRANCH   5  13
ENDBRANCH   3   4
ENDBRANCH   1   3
BRANCH   1  21
ATOM     21  C   UNL     1      20.142 -22.444  -2.170  1.00  0.00    +0.061 A 
ATOM     22  C   UNL     1      19.483 -21.966  -3.318  1.00  0.00    +0.019 A 
ATOM     23  C   UNL     1      21.543 -22.509  -2.171  1.00  0.00    +0.129 A 
ATOM     24  C   UNL     1      20.210 -21.550  -4.434  1.00  0.00    +0.040 A 
ATOM     25  C   UNL     1      22.270 -22.092  -3.288  1.00  0.00    +0.086 A 
ATOM     26  C   UNL     1      21.596 -21.615  -4.407  1.00  0.00    +0.126 A 
ATOM     27  F   UNL     1      22.298 -21.217  -5.476  1.00  0.00    -0.207 F 
BRANCH  23  28
ATOM     28  O   UNL     1      22.222 -22.998  -1.091  1.00  0.00    -0.507 OA
ATOM     29  H   UNL     1      22.446 -23.934  -1.241  1.00  0.00    +0.293 HD
ENDBRANCH  23  28
ENDBRANCH   1  21
TORSDOF 5
ENDMDL
MODEL 8
REMARK VINA RESULT:    -7.859      4.812      8.698
REMARK INTER + INTRA:         -10.976
REMARK INTER:                  -9.825
REMARK INTRA:                  -1.151
REMARK UNBOUND:                -1.050
REMARK SMILES CC1(c2ccc(C#N)cc2)NC(=O)N(CC(=O)c2ccc(F)cc2O)C1=O
REMARK SMILES IDX 16 1 17 2 15 3 14 4 2 5 11 6 26 7 12 8 27 9 13 10 1 11 3 13
REMARK SMILES IDX 4 14 10 15 5 16 9 17 6 18 7 19 8 20 18 21 19 22 24 23 20 24
REMARK SMILES IDX 23 25 21 26 22 27 25 28
REMARK H PARENT 11 12 25 29
ROOT
ATOM      1  C   UNL     1      20.534 -22.498  -3.285  1.00  0.00    +0.186 C 
ATOM      2  O   UNL     1      20.079 -23.645  -3.304  1.00  0.00    -0.292 OA
ENDROOT
BRANCH   1   3
ATOM      3  C   UNL     1      20.371 -21.573  -2.083  1.00  0.00    +0.211 C 
BRANCH   3   4
ATOM      4  N   UNL     1      18.997 -21.630  -1.632  1.00  0.00    -0.254 N 
ATOM      5  C   UNL     1      17.073 -22.040  -0.315  1.00  0.00    +0.144 C 
ATOM      6  N   UNL     1      16.849 -21.111  -1.404  1.00  0.00    -0.319 N 
ATOM      7  C   UNL     1      18.574 -22.340  -0.542  1.00  0.00    +0.261 C 
ATOM      8  C   UNL     1      17.991 -20.861  -2.129  1.00  0.00    +0.325 C 
ATOM      9  O   UNL     1      19.267 -23.091   0.133  1.00  0.00    -0.271 OA
ATOM     10  O   UNL     1      18.047 -20.070  -3.054  1.00  0.00    -0.248 OA
ATOM     11  C   UNL     1      16.294 -23.332  -0.592  1.00  0.00    +0.051 C 
ATOM     12  H   UNL     1      16.015 -20.554  -1.539  1.00  0.00    +0.166 HD
BRANCH   5  13
ATOM     13  C   UNL     1      16.810 -21.365   1.030  1.00  0.00    -0.013 A 
ATOM     14  C   UNL     1      16.684 -22.144   2.199  1.00  0.00    +0.008 A 
ATOM     15  C   UNL     1      16.693 -19.971   1.165  1.00  0.00    +0.008 A 
ATOM     16  C   UNL     1      16.444 -21.557   3.446  1.00  0.00    +0.020 A 
ATOM     17  C   UNL     1      16.453 -19.381   2.413  1.00  0.00    +0.020 A 
ATOM     18  C   UNL     1      16.327 -20.173   3.556  1.00  0.00    +0.052 A 
ATOM     19  C   UNL     1      16.080 -19.565   4.830  1.00  0.00    +0.099 C 
ATOM     20  N   UNL     1      15.883 -19.068   5.861  1.00  0.00    -0.192 NA
ENDBRANCH   5  13
ENDBRANCH   3   4
ENDBRANCH   1   3
BRANCH   1  21
ATOM     21  C   UNL     1      21.255 -22.001  -4.496  1.00  0.00    +0.061 A 
ATOM     22  C   UNL     1      22.621 -22.321  -4.605  1.00  0.00    +0.019 A 
ATOM     23  C   UNL     1      20.657 -21.236  -5.508  1.00  0.00    +0.129 A 
ATOM     24  C   UNL     1      23.366 -21.898  -5.707  1.00  0.00    +0.040 A 
ATOM     25  C   UNL     1      21.402 -20.814  -6.612  1.00  0.00    +0.086 A 
ATOM     26  C   UNL     1      22.748 -21.151  -6.700  1.00  0.00    +0.126 A 
ATOM     27  F   UNL     1      23.459 -20.743  -7.759  1.00  0.00    -0.207 F 
BRANCH  23  28
ATOM     28  O   UNL     1      19.342 -20.873  -5.428  1.00  0.00    -0.507 OA
ATOM     29  H   UNL     1      19.163 -20.146  -6.052  1.00  0.00    +0.293 HD
ENDBRANCH  23  28
ENDBRANCH   1  21
TORSDOF 5
ENDMDL
MODEL 9
REMARK VINA RESULT:    -7.847      3.057      6.396
REMARK INTER + INTRA:         -10.961
REMARK INTER:                  -9.738
REMARK INTRA:                  -1.223
REMARK UNBOUND:                -1.050
REMARK SMILES CC1(c2ccc(C#N)cc2)NC(=O)N(CC(=O)c2ccc(F)cc2O)C1=O
REMARK SMILES IDX 16 1 17 2 15 3 14 4 2 5 11 6 26 7 12 8 27 9 13 10 1 11 3 13
REMARK SMILES IDX 4 14 10 15 5 16 9 17 6 18 7 19 8 20 18 21 19 22 24 23 20 24
REMARK SMILES IDX 23 25 21 26 22 27 25 28
REMARK H PARENT 11 12 25 29
ROOT
ATOM      1  C   UNL     1      19.043 -22.056  -0.661  1.00  0.00    +0.186 C 
ATOM      2  O   UNL     1      19.894 -21.202  -0.925  1.00  0.00    -0.292 OA
ENDROOT
BRANCH   1   3
ATOM      3  C   UNL     1      19.397 -23.390  -0.010  1.00  0.00    +0.211 C 
BRANCH   3   4
ATOM      4  N   UNL     1      18.739 -23.473   1.275  1.00  0.00    -0.254 N 
ATOM      5  C   UNL     1      17.964 -22.942   3.449  1.00  0.00    +0.144 C 
ATOM      6  N   UNL     1      17.277 -24.064   2.841  1.00  0.00    -0.319 N 
ATOM      7  C   UNL     1      18.945 -22.594   2.303  1.00  0.00    +0.261 C 
ATOM      8  C   UNL     1      17.720 -24.326   1.565  1.00  0.00    +0.325 C 
ATOM      9  O   UNL     1      19.772 -21.690   2.315  1.00  0.00    -0.271 OA
ATOM     10  O   UNL     1      17.245 -25.189   0.846  1.00  0.00    -0.248 OA
ATOM     11  C   UNL     1      18.796 -23.448   4.634  1.00  0.00    +0.051 C 
ATOM     12  H   UNL     1      16.447 -24.512   3.204  1.00  0.00    +0.166 HD
BRANCH   5  13
ATOM     13  C   UNL     1      16.985 -21.808   3.743  1.00  0.00    -0.013 A 
ATOM     14  C   UNL     1      16.872 -20.722   2.849  1.00  0.00    +0.008 A 
ATOM     15  C   UNL     1      16.164 -21.795   4.884  1.00  0.00    +0.008 A 
ATOM     16  C   UNL     1      15.985 -19.667   3.089  1.00  0.00    +0.020 A 
ATOM     17  C   UNL     1      15.275 -20.740   5.125  1.00  0.00    +0.020 A 
ATOM     18  C   UNL     1      15.184 -19.673   4.229  1.00  0.00    +0.052 A 
ATOM     19  C   UNL     1      14.274 -18.595   4.481  1.00  0.00    +0.099 C 
ATOM     20  N   UNL     1      13.533 -17.725   4.688  1.00  0.00    -0.192 NA
ENDBRANCH   5  13
ENDBRANCH   3   4
ENDBRANCH   1   3
BRANCH   1  21
ATOM     21  C   UNL     1      17.619 -21.770  -1.011  1.00  0.00    +0.061 A 
ATOM     22  C   UNL     1      16.891 -22.806  -1.627  1.00  0.00    +0.019 A 
ATOM     23  C   UNL     1      16.981 -20.544  -0.773  1.00  0.00    +0.129 A 
ATOM     24  C   UNL     1      15.554 -22.622  -1.983  1.00  0.00    +0.040 A 
ATOM     25  C   UNL     1      15.642 -20.360  -1.129  1.00  0.00    +0.086 A 
ATOM     26  C   UNL     1      14.943 -21.402  -1.728  1.00  0.00    +0.126 A 
ATOM     27  F   UNL     1      13.660 -21.221  -2.068  1.00  0.00    -0.207 F 
BRANCH  23  28
ATOM     28  O   UNL     1      17.658 -19.500  -0.208  1.00  0.00    -0.507 OA
ATOM     29  H   UNL     1      17.155 -18.675  -0.336  1.00  0.00    +0.293 HD
ENDBRANCH  23  28
ENDBRANCH   1  21
TORSDOF 5
ENDMDL
