MODEL 1
REMARK VINA RESULT:    -8.630      0.000      0.000
REMARK INTER + INTRA:          -9.860
REMARK INTER:                  -9.639
REMARK INTRA:                  -0.221
REMARK UNBOUND:                -0.221
REMARK SMILES N#Cc1ncc2c(=O)nc(N3CCN(CC4CCCCC4)CC3)sc2n1
REMARK SMILES IDX 15 1 14 2 1 3 2 4 3 5 4 6 26 7 5 8 25 9 6 10 24 11 7 12
REMARK SMILES IDX 10 13 8 14 9 15 11 16 12 17 23 18 13 19 22 20 16 21 17 22
REMARK SMILES IDX 21 23 18 24 20 25 19 26
REMARK H PARENT
ROOT
ATOM      1  C   UNL     1      19.871 -22.258  -4.503  1.00  0.00    +0.088 C 
ENDROOT
BRANCH   1   2
ATOM      2  N   UNL     1      19.817 -21.244  -3.436  1.00  0.00    -0.300 NA
ATOM      3  N   UNL     1      15.989 -21.177   6.960  1.00  0.00    -0.189 NA
ATOM      4  C   UNL     1      16.050 -20.825   5.852  1.00  0.00    +0.141 C 
ATOM      5  C   UNL     1      16.127 -20.394   4.480  1.00  0.00    +0.233 A 
ATOM      6  N   UNL     1      15.427 -19.299   4.134  1.00  0.00    -0.227 NA
ATOM      7  N   UNL     1      16.899 -21.118   3.647  1.00  0.00    -0.207 NA
ATOM      8  C   UNL     1      15.522 -18.923   2.840  1.00  0.00    +0.131 A 
ATOM      9  C   UNL     1      16.953 -20.701   2.362  1.00  0.00    +0.137 A 
ATOM     10  C   UNL     1      16.272 -19.606   1.908  1.00  0.00    +0.096 A 
ATOM     11  S   UNL     1      18.023 -21.614   1.306  1.00  0.00    -0.078 SA
ATOM     12  C   UNL     1      16.359 -19.172   0.519  1.00  0.00    +0.284 C 
ATOM     13  C   UNL     1      17.468 -21.100  -0.279  1.00  0.00    +0.191 C 
ATOM     14  O   UNL     1      16.007 -18.022   0.274  1.00  0.00    -0.266 OA
ATOM     15  N   UNL     1      16.753 -20.033  -0.461  1.00  0.00    -0.181 NA
ATOM     16  N   UNL     1      17.805 -21.912  -1.361  1.00  0.00    -0.345 N 
ATOM     17  C   UNL     1      19.079 -22.658  -1.436  1.00  0.00    +0.134 C 
ATOM     18  C   UNL     1      17.380 -21.491  -2.718  1.00  0.00    +0.134 C 
ATOM     19  C   UNL     1      20.168 -21.777  -2.096  1.00  0.00    +0.106 C 
ATOM     20  C   UNL     1      18.474 -20.610  -3.365  1.00  0.00    +0.106 C 
ENDBRANCH   1   2
BRANCH   1  21
ATOM     21  C   UNL     1      20.395 -21.724  -5.856  1.00  0.00    +0.003 C 
ATOM     22  C   UNL     1      20.386 -22.812  -6.949  1.00  0.00    +0.005 C 
ATOM     23  C   UNL     1      21.804 -21.139  -5.694  1.00  0.00    +0.005 C 
ATOM     24  C   UNL     1      21.404 -22.572  -8.069  1.00  0.00    +0.000 C 
ATOM     25  C   UNL     1      22.302 -20.478  -6.982  1.00  0.00    +0.000 C 
ATOM     26  C   UNL     1      21.715 -21.094  -8.252  1.00  0.00    +0.000 C 
ENDBRANCH   1  21
TORSDOF 2
ENDMDL
MODEL 2
REMARK VINA RESULT:    -8.549      2.519      9.787
REMARK INTER + INTRA:          -9.770
REMARK INTER:                  -9.559
REMARK INTRA:                  -0.211
REMARK UNBOUND:                -0.221
REMARK SMILES N#Cc1ncc2c(=O)nc(N3CCN(CC4CCCCC4)CC3)sc2n1
REMARK SMILES IDX 15 1 14 2 1 3 2 4 3 5 4 6 26 7 5 8 25 9 6 10 24 11 7 12
REMARK SMILES IDX 10 13 8 14 9 15 11 16 12 17 23 18 13 19 22 20 16 21 17 22
REMARK SMILES IDX 21 23 18 24 20 25 19 26
REMARK H PARENT
ROOT
ATOM      1  C   UNL     1      15.940 -21.369   4.090  1.00  0.00    +0.088 C 
ENDROOT
BRANCH   1   2
ATOM      2  N   UNL     1      17.247 -21.269   3.418  1.00  0.00    -0.300 NA
ATOM      3  N   UNL     1      20.467 -20.819  -7.172  1.00  0.00    -0.189 NA
ATOM      4  C   UNL     1      20.419 -21.266  -6.099  1.00  0.00    +0.141 C 
ATOM      5  C   UNL     1      20.355 -21.816  -4.770  1.00  0.00    +0.233 A 
ATOM      6  N   UNL     1      21.177 -22.843  -4.484  1.00  0.00    -0.227 NA
ATOM      7  N   UNL     1      19.481 -21.259  -3.911  1.00  0.00    -0.207 NA
ATOM      8  C   UNL     1      21.091 -23.335  -3.228  1.00  0.00    +0.131 A 
ATOM      9  C   UNL     1      19.431 -21.795  -2.670  1.00  0.00    +0.137 A 
ATOM     10  C   UNL     1      20.217 -22.844  -2.283  1.00  0.00    +0.096 A 
ATOM     11  S   UNL     1      18.337 -21.008  -1.540  1.00  0.00    -0.078 SA
ATOM     12  C   UNL     1      20.151 -23.393  -0.935  1.00  0.00    +0.284 C 
ATOM     13  C   UNL     1      18.206 -22.224  -0.280  1.00  0.00    +0.191 C 
ATOM     14  O   UNL     1      21.098 -24.084  -0.571  1.00  0.00    -0.266 OA
ATOM     15  N   UNL     1      19.055 -23.195  -0.150  1.00  0.00    -0.181 NA
ATOM     16  N   UNL     1      17.114 -22.126   0.581  1.00  0.00    -0.345 N 
ATOM     17  C   UNL     1      16.537 -20.831   1.000  1.00  0.00    +0.134 C 
ATOM     18  C   UNL     1      16.989 -23.118   1.677  1.00  0.00    +0.134 C 
ATOM     19  C   UNL     1      17.253 -20.322   2.275  1.00  0.00    +0.106 C 
ATOM     20  C   UNL     1      17.710 -22.600   2.944  1.00  0.00    +0.106 C 
ENDBRANCH   1   2
BRANCH   1  21
ATOM     21  C   UNL     1      15.363 -20.013   4.556  1.00  0.00    +0.003 C 
ATOM     22  C   UNL     1      16.245 -19.348   5.631  1.00  0.00    +0.005 C 
ATOM     23  C   UNL     1      13.929 -20.189   5.075  1.00  0.00    +0.005 C 
ATOM     24  C   UNL     1      15.486 -18.381   6.545  1.00  0.00    +0.000 C 
ATOM     25  C   UNL     1      13.276 -18.849   5.419  1.00  0.00    +0.000 C 
ATOM     26  C   UNL     1      14.273 -17.775   5.854  1.00  0.00    +0.000 C 
ENDBRANCH   1  21
TORSDOF 2
ENDMDL
MODEL 3
REMARK VINA RESULT:    -8.454      2.353      3.453
REMARK INTER + INTRA:          -9.664
REMARK INTER:                  -9.455
REMARK INTRA:                  -0.209
REMARK UNBOUND:                -0.221
REMARK SMILES N#Cc1ncc2c(=O)nc(N3CCN(CC4CCCCC4)CC3)sc2n1
REMARK SMILES IDX 15 1 14 2 1 3 2 4 3 5 4 6 26 7 5 8 25 9 6 10 24 11 7 12
REMARK SMILES IDX 10 13 8 14 9 15 11 16 12 17 23 18 13 19 22 20 16 21 17 22
REMARK SMILES IDX 21 23 18 24 20 25 19 26
REMARK H PARENT
ROOT
ATOM      1  C   UNL     1      20.941 -22.621  -1.746  1.00  0.00    +0.088 C 
ENDROOT
BRANCH   1   2
ATOM      2  N   UNL     1      19.777 -23.056  -0.955  1.00  0.00    -0.300 NA
ATOM      3  N   UNL     1      12.718 -17.911   5.859  1.00  0.00    -0.189 NA
ATOM      4  C   UNL     1      13.527 -18.696   5.569  1.00  0.00    +0.141 C 
ATOM      5  C   UNL     1      14.528 -19.665   5.206  1.00  0.00    +0.233 A 
ATOM      6  N   UNL     1      14.829 -20.614   6.111  1.00  0.00    -0.227 NA
ATOM      7  N   UNL     1      15.086 -19.550   3.986  1.00  0.00    -0.207 NA
ATOM      8  C   UNL     1      15.772 -21.506   5.737  1.00  0.00    +0.131 A 
ATOM      9  C   UNL     1      16.029 -20.466   3.666  1.00  0.00    +0.137 A 
ATOM     10  C   UNL     1      16.412 -21.463   4.518  1.00  0.00    +0.096 A 
ATOM     11  S   UNL     1      16.693 -20.345   2.042  1.00  0.00    -0.078 SA
ATOM     12  C   UNL     1      17.422 -22.444   4.142  1.00  0.00    +0.284 C 
ATOM     13  C   UNL     1      18.138 -21.333   2.184  1.00  0.00    +0.191 C 
ATOM     14  O   UNL     1      17.464 -23.478   4.802  1.00  0.00    -0.266 OA
ATOM     15  N   UNL     1      18.315 -22.185   3.146  1.00  0.00    -0.181 NA
ATOM     16  N   UNL     1      19.128 -21.146   1.220  1.00  0.00    -0.345 N 
ATOM     17  C   UNL     1      18.824 -20.810  -0.187  1.00  0.00    +0.134 C 
ATOM     18  C   UNL     1      20.348 -21.985   1.291  1.00  0.00    +0.134 C 
ATOM     19  C   UNL     1      18.636 -22.108  -1.011  1.00  0.00    +0.106 C 
ATOM     20  C   UNL     1      20.149 -23.280   0.468  1.00  0.00    +0.106 C 
ENDBRANCH   1   2
BRANCH   1  21
ATOM     21  C   UNL     1      20.604 -22.225  -3.202  1.00  0.00    +0.003 C 
ATOM     22  C   UNL     1      20.135 -23.434  -4.037  1.00  0.00    +0.005 C 
ATOM     23  C   UNL     1      21.810 -21.550  -3.868  1.00  0.00    +0.005 C 
ATOM     24  C   UNL     1      20.368 -23.275  -5.542  1.00  0.00    +0.000 C 
ATOM     25  C   UNL     1      21.472 -21.022  -5.264  1.00  0.00    +0.000 C 
ATOM     26  C   UNL     1      20.371 -21.814  -5.969  1.00  0.00    +0.000 C 
ENDBRANCH   1  21
TORSDOF 2
ENDMDL
MODEL 4
REMARK VINA RESULT:    -8.206      2.554      9.612
REMARK INTER + INTRA:          -9.386
REMARK INTER:                  -9.135
REMARK INTRA:                  -0.252
REMARK UNBOUND:                -0.221
REMARK SMILES N#Cc1ncc2c(=O)nc(N3CCN(CC4CCCCC4)CC3)sc2n1
REMARK SMILES IDX 15 1 14 2 1 3 2 4 3 5 4 6 26 7 5 8 25 9 6 10 24 11 7 12
REMARK SMILES IDX 10 13 8 14 9 15 11 16 12 17 23 18 13 19 22 20 16 21 17 22
REMARK SMILES IDX 21 23 18 24 20 25 19 26
REMARK H PARENT
ROOT
ATOM      1  C   UNL     1      16.258 -21.308   4.388  1.00  0.00    +0.088 C 
ENDROOT
BRANCH   1   2
ATOM      2  N   UNL     1      16.150 -21.719   2.978  1.00  0.00    -0.300 NA
ATOM      3  N   UNL     1      23.375 -25.421  -4.560  1.00  0.00    -0.189 NA
ATOM      4  C   UNL     1      22.582 -24.690  -4.124  1.00  0.00    +0.141 C 
ATOM      5  C   UNL     1      21.601 -23.787  -3.581  1.00  0.00    +0.233 A 
ATOM      6  N   UNL     1      21.149 -22.806  -4.384  1.00  0.00    -0.227 NA
ATOM      7  N   UNL     1      21.207 -23.993  -2.311  1.00  0.00    -0.207 NA
ATOM      8  C   UNL     1      20.230 -21.977  -3.842  1.00  0.00    +0.131 A 
ATOM      9  C   UNL     1      20.290 -23.130  -1.816  1.00  0.00    +0.137 A 
ATOM     10  C   UNL     1      19.775 -22.097  -2.547  1.00  0.00    +0.096 A 
ATOM     11  S   UNL     1      19.732 -23.460  -0.181  1.00  0.00    -0.078 SA
ATOM     12  C   UNL     1      18.779 -21.189  -1.993  1.00  0.00    +0.284 C 
ATOM     13  C   UNL     1      18.973 -21.933   0.241  1.00  0.00    +0.191 C 
ATOM     14  O   UNL     1      18.132 -20.520  -2.793  1.00  0.00    -0.266 OA
ATOM     15  N   UNL     1      18.628 -21.052  -0.645  1.00  0.00    -0.181 NA
ATOM     16  N   UNL     1      18.776 -21.680   1.597  1.00  0.00    -0.345 N 
ATOM     17  C   UNL     1      18.459 -22.744   2.574  1.00  0.00    +0.134 C 
ATOM     18  C   UNL     1      18.109 -20.414   1.988  1.00  0.00    +0.134 C 
ATOM     19  C   UNL     1      16.926 -22.943   2.657  1.00  0.00    +0.106 C 
ATOM     20  C   UNL     1      16.578 -20.625   2.065  1.00  0.00    +0.106 C 
ENDBRANCH   1   2
BRANCH   1  21
ATOM     21  C   UNL     1      15.495 -20.007   4.728  1.00  0.00    +0.003 C 
ATOM     22  C   UNL     1      16.243 -19.152   5.770  1.00  0.00    +0.005 C 
ATOM     23  C   UNL     1      14.077 -20.330   5.218  1.00  0.00    +0.005 C 
ATOM     24  C   UNL     1      15.332 -18.227   6.582  1.00  0.00    +0.000 C 
ATOM     25  C   UNL     1      13.244 -19.064   5.435  1.00  0.00    +0.000 C 
ATOM     26  C   UNL     1      14.079 -17.839   5.810  1.00  0.00    +0.000 C 
ENDBRANCH   1  21
TORSDOF 2
ENDMDL
MODEL 5
REMARK VINA RESULT:    -8.108      1.679      2.358
REMARK INTER + INTRA:          -9.277
REMARK INTER:                  -9.304
REMARK INTRA:                   0.027
REMARK UNBOUND:                -0.221
REMARK SMILES N#Cc1ncc2c(=O)nc(N3CCN(CC4CCCCC4)CC3)sc2n1
REMARK SMILES IDX 15 1 14 2 1 3 2 4 3 5 4 6 26 7 5 8 25 9 6 10 24 11 7 12
REMARK SMILES IDX 10 13 8 14 9 15 11 16 12 17 23 18 13 19 22 20 16 21 17 22
REMARK SMILES IDX 21 23 18 24 20 25 19 26
REMARK H PARENT
ROOT
ATOM      1  C   UNL     1      22.308 -23.181  -4.786  1.00  0.00    +0.088 C 
ENDROOT
BRANCH   1   2
ATOM      2  N   UNL     1      22.054 -22.010  -3.928  1.00  0.00    -0.300 NA
ATOM      3  N   UNL     1      15.659 -20.165   4.927  1.00  0.00    -0.189 NA
ATOM      4  C   UNL     1      16.034 -19.996   3.838  1.00  0.00    +0.141 C 
ATOM      5  C   UNL     1      16.499 -19.790   2.492  1.00  0.00    +0.233 A 
ATOM      6  N   UNL     1      15.999 -18.739   1.816  1.00  0.00    -0.227 NA
ATOM      7  N   UNL     1      17.404 -20.663   2.010  1.00  0.00    -0.207 NA
ATOM      8  C   UNL     1      16.458 -18.576   0.556  1.00  0.00    +0.131 A 
ATOM      9  C   UNL     1      17.824 -20.457   0.741  1.00  0.00    +0.137 A 
ATOM     10  C   UNL     1      17.371 -19.424  -0.031  1.00  0.00    +0.096 A 
ATOM     11  S   UNL     1      19.060 -21.562   0.155  1.00  0.00    -0.078 SA
ATOM     12  C   UNL     1      17.851 -19.218  -1.392  1.00  0.00    +0.284 C 
ATOM     13  C   UNL     1      18.979 -21.286  -1.577  1.00  0.00    +0.191 C 
ATOM     14  O   UNL     1      17.664 -18.110  -1.884  1.00  0.00    -0.266 OA
ATOM     15  N   UNL     1      18.420 -20.237  -2.096  1.00  0.00    -0.181 NA
ATOM     16  N   UNL     1      19.525 -22.270  -2.401  1.00  0.00    -0.345 N 
ATOM     17  C   UNL     1      20.713 -23.064  -2.022  1.00  0.00    +0.134 C 
ATOM     18  C   UNL     1      19.502 -22.054  -3.867  1.00  0.00    +0.134 C 
ATOM     19  C   UNL     1      22.001 -22.337  -2.481  1.00  0.00    +0.106 C 
ATOM     20  C   UNL     1      20.792 -21.325  -4.315  1.00  0.00    +0.106 C 
ENDBRANCH   1   2
BRANCH   1  21
ATOM     21  C   UNL     1      22.830 -22.830  -6.198  1.00  0.00    +0.003 C 
ATOM     22  C   UNL     1      23.764 -21.603  -6.180  1.00  0.00    +0.005 C 
ATOM     23  C   UNL     1      21.658 -22.597  -7.161  1.00  0.00    +0.005 C 
ATOM     24  C   UNL     1      23.821 -20.849  -7.513  1.00  0.00    +0.000 C 
ATOM     25  C   UNL     1      22.134 -22.380  -8.600  1.00  0.00    +0.000 C 
ATOM     26  C   UNL     1      23.527 -21.759  -8.697  1.00  0.00    +0.000 C 
ENDBRANCH   1  21
TORSDOF 2
ENDMDL
MODEL 6
REMARK VINA RESULT:    -7.986      2.457      3.518
REMARK INTER + INTRA:          -9.141
REMARK INTER:                  -8.935
REMARK INTRA:                  -0.206
REMARK UNBOUND:                -0.221
REMARK SMILES N#Cc1ncc2c(=O)nc(N3CCN(CC4CCCCC4)CC3)sc2n1
REMARK SMILES IDX 15 1 14 2 1 3 2 4 3 5 4 6 26 7 5 8 25 9 6 10 24 11 7 12
REMARK SMILES IDX 10 13 8 14 9 15 11 16 12 17 23 18 13 19 22 20 16 21 17 22
REMARK SMILES IDX 21 23 18 24 20 25 19 26
REMARK H PARENT
ROOT
ATOM      1  C   UNL     1      19.243 -21.672  -3.370  1.00  0.00    +0.088 C 
ENDROOT
BRANCH   1   2
ATOM      2  N   UNL     1      18.148 -22.016  -2.445  1.00  0.00    -0.300 NA
ATOM      3  N   UNL     1      12.742 -16.511   5.503  1.00  0.00    -0.189 NA
ATOM      4  C   UNL     1      13.401 -17.365   5.069  1.00  0.00    +0.141 C 
ATOM      5  C   UNL     1      14.219 -18.420   4.528  1.00  0.00    +0.233 A 
ATOM      6  N   UNL     1      14.517 -19.452   5.339  1.00  0.00    -0.227 NA
ATOM      7  N   UNL     1      14.620 -18.297   3.249  1.00  0.00    -0.207 NA
ATOM      8  C   UNL     1      15.284 -20.424   4.799  1.00  0.00    +0.131 A 
ATOM      9  C   UNL     1      15.392 -19.295   2.761  1.00  0.00    +0.137 A 
ATOM     10  C   UNL     1      15.758 -20.381   3.506  1.00  0.00    +0.096 A 
ATOM     11  S   UNL     1      15.846 -19.153   1.068  1.00  0.00    -0.078 SA
ATOM     12  C   UNL     1      16.581 -21.448   2.951  1.00  0.00    +0.284 C 
ATOM     13  C   UNL     1      17.164 -20.309   0.964  1.00  0.00    +0.191 C 
ATOM     14  O   UNL     1      16.581 -22.518   3.551  1.00  0.00    -0.266 OA
ATOM     15  N   UNL     1      17.360 -21.233   1.853  1.00  0.00    -0.181 NA
ATOM     16  N   UNL     1      18.033 -20.181  -0.118  1.00  0.00    -0.345 N 
ATOM     17  C   UNL     1      17.590 -19.725  -1.453  1.00  0.00    +0.134 C 
ATOM     18  C   UNL     1      19.139 -21.159  -0.254  1.00  0.00    +0.134 C 
ATOM     19  C   UNL     1      17.137 -20.940  -2.300  1.00  0.00    +0.106 C 
ATOM     20  C   UNL     1      18.674 -22.369  -1.099  1.00  0.00    +0.106 C 
ENDBRANCH   1   2
BRANCH   1  21
ATOM     21  C   UNL     1      20.534 -22.494  -3.154  1.00  0.00    +0.003 C 
ATOM     22  C   UNL     1      21.797 -21.610  -3.202  1.00  0.00    +0.005 C 
ATOM     23  C   UNL     1      20.632 -23.623  -4.189  1.00  0.00    +0.005 C 
ATOM     24  C   UNL     1      23.067 -22.366  -3.603  1.00  0.00    +0.000 C 
ATOM     25  C   UNL     1      21.827 -24.541  -3.924  1.00  0.00    +0.000 C 
ATOM     26  C   UNL     1      22.996 -23.840  -3.232  1.00  0.00    +0.000 C 
ENDBRANCH   1  21
TORSDOF 2
ENDMDL
MODEL 7
REMARK VINA RESULT:    -7.818      2.733      3.286
REMARK INTER + INTRA:          -8.954
REMARK INTER:                  -8.696
REMARK INTRA:                  -0.258
REMARK UNBOUND:                -0.221
REMARK SMILES N#Cc1ncc2c(=O)nc(N3CCN(CC4CCCCC4)CC3)sc2n1
REMARK SMILES IDX 15 1 14 2 1 3 2 4 3 5 4 6 26 7 5 8 25 9 6 10 24 11 7 12
REMARK SMILES IDX 10 13 8 14 9 15 11 16 12 17 23 18 13 19 22 20 16 21 17 22
REMARK SMILES IDX 21 23 18 24 20 25 19 26
REMARK H PARENT
ROOT
ATOM      1  C   UNL     1      20.320 -23.803  -1.323  1.00  0.00    +0.088 C 
ENDROOT
BRANCH   1   2
ATOM      2  N   UNL     1      20.136 -22.466  -0.732  1.00  0.00    -0.300 NA
ATOM      3  N   UNL     1      12.957 -18.153   6.520  1.00  0.00    -0.189 NA
ATOM      4  C   UNL     1      13.498 -18.245   5.493  1.00  0.00    +0.141 C 
ATOM      5  C   UNL     1      14.169 -18.364   4.225  1.00  0.00    +0.233 A 
ATOM      6  N   UNL     1      13.934 -17.409   3.307  1.00  0.00    -0.227 NA
ATOM      7  N   UNL     1      14.985 -19.421   4.054  1.00  0.00    -0.207 NA
ATOM      8  C   UNL     1      14.579 -17.551   2.129  1.00  0.00    +0.131 A 
ATOM      9  C   UNL     1      15.601 -19.518   2.853  1.00  0.00    +0.137 A 
ATOM     10  C   UNL     1      15.421 -18.606   1.852  1.00  0.00    +0.096 A 
ATOM     11  S   UNL     1      16.719 -20.864   2.674  1.00  0.00    -0.078 SA
ATOM     12  C   UNL     1      16.108 -18.729   0.572  1.00  0.00    +0.284 C 
ATOM     13  C   UNL     1      16.919 -20.919   0.930  1.00  0.00    +0.191 C 
ATOM     14  O   UNL     1      16.162 -17.722  -0.128  1.00  0.00    -0.266 OA
ATOM     15  N   UNL     1      16.603 -19.928   0.155  1.00  0.00    -0.181 NA
ATOM     16  N   UNL     1      17.413 -22.104   0.387  1.00  0.00    -0.345 N 
ATOM     17  C   UNL     1      18.402 -22.954   1.085  1.00  0.00    +0.134 C 
ATOM     18  C   UNL     1      17.623 -22.175  -1.079  1.00  0.00    +0.134 C 
ATOM     19  C   UNL     1      19.837 -22.498   0.722  1.00  0.00    +0.106 C 
ATOM     20  C   UNL     1      19.058 -21.715  -1.430  1.00  0.00    +0.106 C 
ENDBRANCH   1   2
BRANCH   1  21
ATOM     21  C   UNL     1      21.696 -24.013  -1.996  1.00  0.00    +0.003 C 
ATOM     22  C   UNL     1      22.653 -22.832  -1.736  1.00  0.00    +0.005 C 
ATOM     23  C   UNL     1      21.527 -24.244  -3.504  1.00  0.00    +0.005 C 
ATOM     24  C   UNL     1      23.736 -22.667  -2.806  1.00  0.00    +0.000 C 
ATOM     25  C   UNL     1      22.854 -24.591  -4.182  1.00  0.00    +0.000 C 
ATOM     26  C   UNL     1      24.074 -23.985  -3.487  1.00  0.00    +0.000 C 
ENDBRANCH   1  21
TORSDOF 2
ENDMDL
MODEL 8
REMARK VINA RESULT:    -7.496      2.787      9.897
REMARK INTER + INTRA:          -8.593
REMARK INTER:                  -8.403
REMARK INTRA:                  -0.190
REMARK UNBOUND:                -0.221
REMARK SMILES N#Cc1ncc2c(=O)nc(N3CCN(CC4CCCCC4)CC3)sc2n1
REMARK SMILES IDX 15 1 14 2 1 3 2 4 3 5 4 6 26 7 5 8 25 9 6 10 24 11 7 12
REMARK SMILES IDX 10 13 8 14 9 15 11 16 12 17 23 18 13 19 22 20 16 21 17 22
REMARK SMILES IDX 21 23 18 24 20 25 19 26
REMARK H PARENT
ROOT
ATOM      1  C   UNL     1      17.124 -21.964   2.850  1.00  0.00    +0.088 C 
ENDROOT
BRANCH   1   2
ATOM      2  N   UNL     1      18.312 -21.446   2.150  1.00  0.00    -0.300 NA
ATOM      3  N   UNL     1      21.306 -20.738  -8.492  1.00  0.00    -0.189 NA
ATOM      4  C   UNL     1      21.408 -21.079  -7.384  1.00  0.00    +0.141 C 
ATOM      5  C   UNL     1      21.531 -21.500  -6.013  1.00  0.00    +0.233 A 
ATOM      6  N   UNL     1      22.668 -22.125  -5.655  1.00  0.00    -0.227 NA
ATOM      7  N   UNL     1      20.500 -21.234  -5.190  1.00  0.00    -0.207 NA
ATOM      8  C   UNL     1      22.750 -22.506  -4.362  1.00  0.00    +0.131 A 
ATOM      9  C   UNL     1      20.631 -21.643  -3.907  1.00  0.00    +0.137 A 
ATOM     10  C   UNL     1      21.742 -22.294  -3.447  1.00  0.00    +0.096 A 
ATOM     11  S   UNL     1      19.307 -21.222  -2.830  1.00  0.00    -0.078 SA
ATOM     12  C   UNL     1      21.862 -22.712  -2.056  1.00  0.00    +0.284 C 
ATOM     13  C   UNL     1      19.613 -22.290  -1.470  1.00  0.00    +0.191 C 
ATOM     14  O   UNL     1      22.991 -22.973  -1.651  1.00  0.00    -0.266 OA
ATOM     15  N   UNL     1      20.758 -22.866  -1.272  1.00  0.00    -0.181 NA
ATOM     16  N   UNL     1      18.548 -22.528  -0.602  1.00  0.00    -0.345 N 
ATOM     17  C   UNL     1      17.528 -21.506  -0.284  1.00  0.00    +0.134 C 
ATOM     18  C   UNL     1      18.780 -23.400   0.575  1.00  0.00    +0.134 C 
ATOM     19  C   UNL     1      17.987 -20.664   0.932  1.00  0.00    +0.106 C 
ATOM     20  C   UNL     1      19.240 -22.549   1.782  1.00  0.00    +0.106 C 
ENDBRANCH   1   2
BRANCH   1  21
ATOM     21  C   UNL     1      16.822 -21.256   4.191  1.00  0.00    +0.003 C 
ATOM     22  C   UNL     1      16.428 -22.257   5.297  1.00  0.00    +0.005 C 
ATOM     23  C   UNL     1      15.722 -20.202   4.007  1.00  0.00    +0.005 C 
ATOM     24  C   UNL     1      15.561 -21.647   6.403  1.00  0.00    +0.000 C 
ATOM     25  C   UNL     1      15.491 -19.387   5.282  1.00  0.00    +0.000 C 
ATOM     26  C   UNL     1      15.807 -20.155   6.565  1.00  0.00    +0.000 C 
ENDBRANCH   1  21
TORSDOF 2
ENDMDL
MODEL 9
REMARK VINA RESULT:    -7.414      5.272      7.312
REMARK INTER + INTRA:          -8.502
REMARK INTER:                  -8.383
REMARK INTRA:                  -0.120
REMARK UNBOUND:                -0.221
REMARK SMILES N#Cc1ncc2c(=O)nc(N3CCN(CC4CCCCC4)CC3)sc2n1
REMARK SMILES IDX 15 1 14 2 1 3 2 4 3 5 4 6 26 7 5 8 25 9 6 10 24 11 7 12
REMARK SMILES IDX 10 13 8 14 9 15 11 16 12 17 23 18 13 19 22 20 16 21 17 22
REMARK SMILES IDX 21 23 18 24 20 25 19 26
REMARK H PARENT
ROOT
ATOM      1  C   UNL     1      21.727 -25.535   2.889  1.00  0.00    +0.088 C 
ENDROOT
BRANCH   1   2
ATOM      2  N   UNL     1      21.425 -24.095   2.959  1.00  0.00    -0.300 NA
ATOM      3  N   UNL     1      12.622 -18.203   6.201  1.00  0.00    -0.189 NA
ATOM      4  C   UNL     1      13.429 -18.573   5.449  1.00  0.00    +0.141 C 
ATOM      5  C   UNL     1      14.428 -19.034   4.521  1.00  0.00    +0.233 A 
ATOM      6  N   UNL     1      14.493 -18.422   3.324  1.00  0.00    -0.227 NA
ATOM      7  N   UNL     1      15.226 -20.042   4.921  1.00  0.00    -0.207 NA
ATOM      8  C   UNL     1      15.442 -18.880   2.478  1.00  0.00    +0.131 A 
ATOM      9  C   UNL     1      16.154 -20.466   4.033  1.00  0.00    +0.137 A 
ATOM     10  C   UNL     1      16.295 -19.917   2.790  1.00  0.00    +0.096 A 
ATOM     11  S   UNL     1      17.234 -21.732   4.601  1.00  0.00    -0.078 SA
ATOM     12  C   UNL     1      17.312 -20.385   1.857  1.00  0.00    +0.284 C 
ATOM     13  C   UNL     1      17.919 -22.307   3.089  1.00  0.00    +0.191 C 
ATOM     14  O   UNL     1      17.594 -19.639   0.924  1.00  0.00    -0.266 OA
ATOM     15  N   UNL     1      17.868 -21.622   1.989  1.00  0.00    -0.181 NA
ATOM     16  N   UNL     1      18.509 -23.570   3.103  1.00  0.00    -0.345 N 
ATOM     17  C   UNL     1      19.232 -24.105   4.276  1.00  0.00    +0.134 C 
ATOM     18  C   UNL     1      19.125 -24.074   1.851  1.00  0.00    +0.134 C 
ATOM     19  C   UNL     1      20.724 -23.698   4.206  1.00  0.00    +0.106 C 
ATOM     20  C   UNL     1      20.614 -23.659   1.791  1.00  0.00    +0.106 C 
ENDBRANCH   1   2
BRANCH   1  21
ATOM     21  C   UNL     1      22.740 -26.021   3.950  1.00  0.00    +0.003 C 
ATOM     22  C   UNL     1      23.914 -25.037   4.123  1.00  0.00    +0.005 C 
ATOM     23  C   UNL     1      23.262 -27.420   3.594  1.00  0.00    +0.005 C 
ATOM     24  C   UNL     1      25.196 -25.688   4.651  1.00  0.00    +0.000 C 
ATOM     25  C   UNL     1      24.164 -27.991   4.691  1.00  0.00    +0.000 C 
ATOM     26  C   UNL     1      24.906 -26.922   5.493  1.00  0.00    +0.000 C 
ENDBRANCH   1  21
TORSDOF 2
ENDMDL
