MODEL 1
REMARK VINA RESULT:    -8.888      0.000      0.000
REMARK INTER + INTRA:         -13.174
REMARK INTER:                 -12.265
REMARK INTRA:                  -0.908
REMARK UNBOUND:                -0.908
REMARK SMILES COc1ccc(CNc2nc3cc(C(F)(F)F)ccc3nc2C(=O)O)cc1
REMARK SMILES IDX 8 1 7 3 6 4 3 5 4 6 27 7 5 8 26 9 2 10 1 11 9 12 10 13 22 14
REMARK SMILES IDX 11 15 21 16 12 17 20 18 13 19 19 20 18 21 23 22 24 23 25 24
REMARK SMILES IDX 14 26 15 27 16 28 17 29
REMARK H PARENT 8 2 25 25
ROOT
ATOM      1  N   UNL     1      17.902 -20.889   0.847  1.00  0.00    -0.364 N 
ATOM      2  H   UNL     1      17.679 -21.433   0.009  1.00  0.00    +0.162 HD
ENDROOT
BRANCH   1   3
ATOM      3  C   UNL     1      18.255 -21.733   1.979  1.00  0.00    +0.150 C 
BRANCH   3   4
ATOM      4  C   UNL     1      17.904 -23.167   1.653  1.00  0.00    -0.029 A 
ATOM      5  C   UNL     1      17.274 -25.848   1.053  1.00  0.00    +0.118 A 
ATOM      6  C   UNL     1      17.991 -25.538   2.208  1.00  0.00    +0.047 A 
ATOM      7  C   UNL     1      16.878 -24.817   0.199  1.00  0.00    +0.047 A 
ATOM      8  C   UNL     1      18.304 -24.206   2.504  1.00  0.00    +0.009 A 
ATOM      9  C   UNL     1      17.190 -23.485   0.491  1.00  0.00    +0.009 A 
BRANCH   5  10
ATOM     10  O   UNL     1      16.902 -27.100   0.648  1.00  0.00    -0.497 OA
ATOM     11  C   UNL     1      17.786 -28.167   0.967  1.00  0.00    +0.278 C 
ENDBRANCH   5  10
ENDBRANCH   3   4
ENDBRANCH   1   3
BRANCH   1  12
ATOM     12  C   UNL     1      16.920 -19.920   1.096  1.00  0.00    +0.160 A 
ATOM     13  N   UNL     1      16.305 -19.927   2.307  1.00  0.00    -0.227 NA
ATOM     14  C   UNL     1      16.642 -18.879   0.197  1.00  0.00    +0.191 A 
ATOM     15  C   UNL     1      15.441 -18.934   2.593  1.00  0.00    +0.092 A 
ATOM     16  N   UNL     1      15.768 -17.866   0.469  1.00  0.00    -0.236 NA
ATOM     17  C   UNL     1      14.799 -18.925   3.824  1.00  0.00    +0.043 A 
ATOM     18  C   UNL     1      15.175 -17.898   1.669  1.00  0.00    +0.090 A 
ATOM     19  C   UNL     1      13.887 -17.918   4.178  1.00  0.00    +0.058 A 
ATOM     20  C   UNL     1      14.279 -16.896   2.018  1.00  0.00    +0.031 A 
ATOM     21  C   UNL     1      13.638 -16.894   3.260  1.00  0.00    +0.015 A 
BRANCH  14  22
ATOM     22  C   UNL     1      17.261 -18.878  -1.159  1.00  0.00    +0.358 C 
ATOM     23  O   UNL     1      18.034 -18.043  -1.598  1.00  0.00    -0.244 OA
BRANCH  22  24
ATOM     24  O   UNL     1      16.899 -19.942  -1.907  1.00  0.00    -0.476 OA
ATOM     25  H   UNL     1      16.623 -20.622  -1.261  1.00  0.00    +0.297 HD
ENDBRANCH  22  24
ENDBRANCH  14  22
BRANCH  19  26
ATOM     26  C   UNL     1      13.226 -17.929   5.534  1.00  0.00    +0.416 C 
ATOM     27  F   UNL     1      12.230 -18.852   5.629  1.00  0.00    -0.166 F 
ATOM     28  F   UNL     1      14.105 -18.217   6.531  1.00  0.00    -0.166 F 
ATOM     29  F   UNL     1      12.661 -16.735   5.863  1.00  0.00    -0.166 F 
ENDBRANCH  19  26
ENDBRANCH   1  12
TORSDOF 7
ENDMDL
MODEL 2
REMARK VINA RESULT:    -8.771      2.043      2.693
REMARK INTER + INTRA:         -13.012
REMARK INTER:                 -12.019
REMARK INTRA:                  -0.994
REMARK UNBOUND:                -0.908
REMARK SMILES COc1ccc(CNc2nc3cc(C(F)(F)F)ccc3nc2C(=O)O)cc1
REMARK SMILES IDX 8 1 7 3 6 4 3 5 4 6 27 7 5 8 26 9 2 10 1 11 9 12 10 13 22 14
REMARK SMILES IDX 11 15 21 16 12 17 20 18 13 19 19 20 18 21 23 22 24 23 25 24
REMARK SMILES IDX 14 26 15 27 16 28 17 29
REMARK H PARENT 8 2 25 25
ROOT
ATOM      1  N   UNL     1      18.117 -20.829   0.799  1.00  0.00    -0.364 N 
ATOM      2  H   UNL     1      18.490 -20.689  -0.145  1.00  0.00    +0.162 HD
ENDROOT
BRANCH   1   3
ATOM      3  C   UNL     1      17.817 -22.225   1.076  1.00  0.00    +0.150 C 
BRANCH   3   4
ATOM      4  C   UNL     1      18.851 -22.770   2.034  1.00  0.00    -0.029 A 
ATOM      5  C   UNL     1      20.767 -23.773   3.843  1.00  0.00    +0.118 A 
ATOM      6  C   UNL     1      19.415 -23.768   4.185  1.00  0.00    +0.047 A 
ATOM      7  C   UNL     1      21.157 -23.273   2.599  1.00  0.00    +0.047 A 
ATOM      8  C   UNL     1      18.465 -23.268   3.287  1.00  0.00    +0.009 A 
ATOM      9  C   UNL     1      20.211 -22.772   1.700  1.00  0.00    +0.009 A 
BRANCH   5  10
ATOM     10  O   UNL     1      21.793 -24.231   4.622  1.00  0.00    -0.497 OA
ATOM     11  C   UNL     1      23.111 -23.893   4.211  1.00  0.00    +0.278 C 
ENDBRANCH   5  10
ENDBRANCH   3   4
ENDBRANCH   1   3
BRANCH   1  12
ATOM     12  C   UNL     1      17.084 -19.920   1.071  1.00  0.00    +0.160 A 
ATOM     13  N   UNL     1      16.515 -19.948   2.304  1.00  0.00    -0.227 NA
ATOM     14  C   UNL     1      16.707 -18.913   0.169  1.00  0.00    +0.191 A 
ATOM     15  C   UNL     1      15.599 -19.009   2.609  1.00  0.00    +0.092 A 
ATOM     16  N   UNL     1      15.779 -17.954   0.460  1.00  0.00    -0.236 NA
ATOM     17  C   UNL     1      15.003 -19.022   3.863  1.00  0.00    +0.043 A 
ATOM     18  C   UNL     1      15.234 -18.006   1.682  1.00  0.00    +0.090 A 
ATOM     19  C   UNL     1      14.042 -18.069   4.237  1.00  0.00    +0.058 A 
ATOM     20  C   UNL     1      14.289 -17.058   2.052  1.00  0.00    +0.031 A 
ATOM     21  C   UNL     1      13.694 -17.078   3.316  1.00  0.00    +0.015 A 
BRANCH  14  22
ATOM     22  C   UNL     1      17.275 -18.894  -1.208  1.00  0.00    +0.358 C 
ATOM     23  O   UNL     1      18.019 -18.044  -1.669  1.00  0.00    -0.244 OA
BRANCH  22  24
ATOM     24  O   UNL     1      16.901 -19.957  -1.951  1.00  0.00    -0.476 OA
ATOM     25  H   UNL     1      15.938 -20.042  -1.802  1.00  0.00    +0.297 HD
ENDBRANCH  22  24
ENDBRANCH  14  22
BRANCH  19  26
ATOM     26  C   UNL     1      13.432 -18.102   5.617  1.00  0.00    +0.416 C 
ATOM     27  F   UNL     1      14.361 -18.244   6.602  1.00  0.00    -0.166 F 
ATOM     28  F   UNL     1      12.750 -16.961   5.904  1.00  0.00    -0.166 F 
ATOM     29  F   UNL     1      12.549 -19.123   5.787  1.00  0.00    -0.166 F 
ENDBRANCH  19  26
ENDBRANCH   1  12
TORSDOF 7
ENDMDL
MODEL 3
REMARK VINA RESULT:    -8.756      2.909      4.841
REMARK INTER + INTRA:         -12.991
REMARK INTER:                 -12.057
REMARK INTRA:                  -0.934
REMARK UNBOUND:                -0.908
REMARK SMILES COc1ccc(CNc2nc3cc(C(F)(F)F)ccc3nc2C(=O)O)cc1
REMARK SMILES IDX 8 1 7 3 6 4 3 5 4 6 27 7 5 8 26 9 2 10 1 11 9 12 10 13 22 14
REMARK SMILES IDX 11 15 21 16 12 17 20 18 13 19 19 20 18 21 23 22 24 23 25 24
REMARK SMILES IDX 14 26 15 27 16 28 17 29
REMARK H PARENT 8 2 25 25
ROOT
ATOM      1  N   UNL     1      17.533 -22.475   2.268  1.00  0.00    -0.364 N 
ATOM      2  H   UNL     1      18.461 -22.213   1.924  1.00  0.00    +0.162 HD
ENDROOT
BRANCH   1   3
ATOM      3  C   UNL     1      16.565 -22.628   1.192  1.00  0.00    +0.150 C 
BRANCH   3   4
ATOM      4  C   UNL     1      17.192 -22.165  -0.103  1.00  0.00    -0.029 A 
ATOM      5  C   UNL     1      18.341 -21.316  -2.533  1.00  0.00    +0.118 A 
ATOM      6  C   UNL     1      16.954 -21.381  -2.399  1.00  0.00    +0.047 A 
ATOM      7  C   UNL     1      19.148 -21.678  -1.453  1.00  0.00    +0.047 A 
ATOM      8  C   UNL     1      16.385 -21.805  -1.192  1.00  0.00    +0.009 A 
ATOM      9  C   UNL     1      18.583 -22.102  -0.247  1.00  0.00    +0.009 A 
BRANCH   5  10
ATOM     10  O   UNL     1      19.023 -20.920  -3.650  1.00  0.00    -0.497 OA
ATOM     11  C   UNL     1      20.122 -21.730  -4.051  1.00  0.00    +0.278 C 
ENDBRANCH   5  10
ENDBRANCH   3   4
ENDBRANCH   1   3
BRANCH   1  12
ATOM     12  C   UNL     1      17.135 -21.647   3.328  1.00  0.00    +0.160 A 
ATOM     13  N   UNL     1      16.174 -20.718   3.090  1.00  0.00    -0.227 NA
ATOM     14  C   UNL     1      17.601 -21.825   4.640  1.00  0.00    +0.191 A 
ATOM     15  C   UNL     1      15.711 -19.995   4.127  1.00  0.00    +0.092 A 
ATOM     16  N   UNL     1      17.145 -21.099   5.703  1.00  0.00    -0.236 NA
ATOM     17  C   UNL     1      14.729 -19.037   3.904  1.00  0.00    +0.043 A 
ATOM     18  C   UNL     1      16.197 -20.190   5.439  1.00  0.00    +0.090 A 
ATOM     19  C   UNL     1      14.209 -18.252   4.945  1.00  0.00    +0.058 A 
ATOM     20  C   UNL     1      15.679 -19.420   6.473  1.00  0.00    +0.031 A 
ATOM     21  C   UNL     1      14.692 -18.460   6.240  1.00  0.00    +0.015 A 
BRANCH  14  22
ATOM     22  C   UNL     1      18.695 -22.797   4.919  1.00  0.00    +0.358 C 
ATOM     23  O   UNL     1      18.785 -23.929   4.470  1.00  0.00    -0.244 OA
BRANCH  22  24
ATOM     24  O   UNL     1      19.649 -22.303   5.736  1.00  0.00    -0.476 OA
ATOM     25  H   UNL     1      20.015 -23.085   6.196  1.00  0.00    +0.297 HD
ENDBRANCH  22  24
ENDBRANCH  14  22
BRANCH  19  26
ATOM     26  C   UNL     1      13.127 -17.238   4.669  1.00  0.00    +0.416 C 
ATOM     27  F   UNL     1      13.186 -16.162   5.500  1.00  0.00    -0.166 F 
ATOM     28  F   UNL     1      13.200 -16.741   3.404  1.00  0.00    -0.166 F 
ATOM     29  F   UNL     1      11.872 -17.745   4.803  1.00  0.00    -0.166 F 
ENDBRANCH  19  26
ENDBRANCH   1  12
TORSDOF 7
ENDMDL
MODEL 4
REMARK VINA RESULT:    -8.461      2.474      2.731
REMARK INTER + INTRA:         -12.585
REMARK INTER:                 -11.661
REMARK INTRA:                  -0.924
REMARK UNBOUND:                -0.908
REMARK SMILES COc1ccc(CNc2nc3cc(C(F)(F)F)ccc3nc2C(=O)O)cc1
REMARK SMILES IDX 8 1 7 3 6 4 3 5 4 6 27 7 5 8 26 9 2 10 1 11 9 12 10 13 22 14
REMARK SMILES IDX 11 15 21 16 12 17 20 18 13 19 19 20 18 21 23 22 24 23 25 24
REMARK SMILES IDX 14 26 15 27 16 28 17 29
REMARK H PARENT 8 2 25 25
ROOT
ATOM      1  N   UNL     1      17.645 -21.066   0.922  1.00  0.00    -0.364 N 
ATOM      2  H   UNL     1      17.194 -21.980   1.017  1.00  0.00    +0.162 HD
ENDROOT
BRANCH   1   3
ATOM      3  C   UNL     1      18.899 -20.986   1.655  1.00  0.00    +0.150 C 
BRANCH   3   4
ATOM      4  C   UNL     1      19.924 -21.864   0.974  1.00  0.00    -0.029 A 
ATOM      5  C   UNL     1      21.856 -23.486  -0.284  1.00  0.00    +0.118 A 
ATOM      6  C   UNL     1      22.019 -23.107   1.048  1.00  0.00    +0.047 A 
ATOM      7  C   UNL     1      20.729 -23.051  -0.984  1.00  0.00    +0.047 A 
ATOM      8  C   UNL     1      21.060 -22.300   1.671  1.00  0.00    +0.009 A 
ATOM      9  C   UNL     1      19.770 -22.243  -0.365  1.00  0.00    +0.009 A 
BRANCH   5  10
ATOM     10  O   UNL     1      22.711 -24.269  -1.009  1.00  0.00    -0.497 OA
ATOM     11  C   UNL     1      23.014 -23.836  -2.330  1.00  0.00    +0.278 C 
ENDBRANCH   5  10
ENDBRANCH   3   4
ENDBRANCH   1   3
BRANCH   1  12
ATOM     12  C   UNL     1      16.734 -20.027   1.162  1.00  0.00    +0.160 A 
ATOM     13  N   UNL     1      16.090 -20.003   2.357  1.00  0.00    -0.227 NA
ATOM     14  C   UNL     1      16.560 -18.955   0.273  1.00  0.00    +0.191 A 
ATOM     15  C   UNL     1      15.298 -18.951   2.638  1.00  0.00    +0.092 A 
ATOM     16  N   UNL     1      15.759 -17.882   0.539  1.00  0.00    -0.236 NA
ATOM     17  C   UNL     1      14.628 -18.909   3.854  1.00  0.00    +0.043 A 
ATOM     18  C   UNL     1      15.136 -17.884   1.725  1.00  0.00    +0.090 A 
ATOM     19  C   UNL     1      13.788 -17.838   4.201  1.00  0.00    +0.058 A 
ATOM     20  C   UNL     1      14.312 -16.821   2.068  1.00  0.00    +0.031 A 
ATOM     21  C   UNL     1      13.641 -16.786   3.294  1.00  0.00    +0.015 A 
BRANCH  14  22
ATOM     22  C   UNL     1      17.210 -18.984  -1.068  1.00  0.00    +0.358 C 
ATOM     23  O   UNL     1      18.011 -18.170  -1.498  1.00  0.00    -0.244 OA
BRANCH  22  24
ATOM     24  O   UNL     1      16.846 -20.050  -1.812  1.00  0.00    -0.476 OA
ATOM     25  H   UNL     1      16.046 -19.758  -2.293  1.00  0.00    +0.297 HD
ENDBRANCH  22  24
ENDBRANCH  14  22
BRANCH  19  26
ATOM     26  C   UNL     1      13.094 -17.817   5.540  1.00  0.00    +0.416 C 
ATOM     27  F   UNL     1      12.005 -18.633   5.585  1.00  0.00    -0.166 F 
ATOM     28  F   UNL     1      13.912 -18.223   6.549  1.00  0.00    -0.166 F 
ATOM     29  F   UNL     1      12.649 -16.580   5.892  1.00  0.00    -0.166 F 
ENDBRANCH  19  26
ENDBRANCH   1  12
TORSDOF 7
ENDMDL
MODEL 5
REMARK VINA RESULT:    -8.272      2.064      2.693
REMARK INTER + INTRA:         -12.324
REMARK INTER:                 -11.420
REMARK INTRA:                  -0.904
REMARK UNBOUND:                -0.908
REMARK SMILES COc1ccc(CNc2nc3cc(C(F)(F)F)ccc3nc2C(=O)O)cc1
REMARK SMILES IDX 8 1 7 3 6 4 3 5 4 6 27 7 5 8 26 9 2 10 1 11 9 12 10 13 22 14
REMARK SMILES IDX 11 15 21 16 12 17 20 18 13 19 19 20 18 21 23 22 24 23 25 24
REMARK SMILES IDX 14 26 15 27 16 28 17 29
REMARK H PARENT 8 2 25 25
ROOT
ATOM      1  N   UNL     1      18.719 -20.878  -0.226  1.00  0.00    -0.364 N 
ATOM      2  H   UNL     1      19.208 -20.086  -0.652  1.00  0.00    +0.162 HD
ENDROOT
BRANCH   1   3
ATOM      3  C   UNL     1      18.282 -21.855  -1.211  1.00  0.00    +0.150 C 
BRANCH   3   4
ATOM      4  C   UNL     1      18.232 -23.220  -0.563  1.00  0.00    -0.029 A 
ATOM      5  C   UNL     1      18.117 -25.756   0.662  1.00  0.00    +0.118 A 
ATOM      6  C   UNL     1      16.941 -25.081   0.337  1.00  0.00    +0.047 A 
ATOM      7  C   UNL     1      19.347 -25.159   0.376  1.00  0.00    +0.047 A 
ATOM      8  C   UNL     1      16.999 -23.820  -0.270  1.00  0.00    +0.009 A 
ATOM      9  C   UNL     1      19.409 -23.900  -0.229  1.00  0.00    +0.009 A 
BRANCH   5  10
ATOM     10  O   UNL     1      18.203 -26.986   1.253  1.00  0.00    -0.497 OA
ATOM     11  C   UNL     1      17.090 -27.856   1.086  1.00  0.00    +0.278 C 
ENDBRANCH   5  10
ENDBRANCH   3   4
ENDBRANCH   1   3
BRANCH   1  12
ATOM     12  C   UNL     1      17.735 -20.440   0.672  1.00  0.00    +0.160 A 
ATOM     13  N   UNL     1      17.613 -21.090   1.857  1.00  0.00    -0.227 NA
ATOM     14  C   UNL     1      16.963 -19.289   0.443  1.00  0.00    +0.191 A 
ATOM     15  C   UNL     1      16.746 -20.607   2.768  1.00  0.00    +0.092 A 
ATOM     16  N   UNL     1      16.078 -18.787   1.353  1.00  0.00    -0.236 NA
ATOM     17  C   UNL     1      16.605 -21.259   3.986  1.00  0.00    +0.043 A 
ATOM     18  C   UNL     1      15.978 -19.448   2.514  1.00  0.00    +0.090 A 
ATOM     19  C   UNL     1      15.716 -20.803   4.972  1.00  0.00    +0.058 A 
ATOM     20  C   UNL     1      15.103 -18.990   3.490  1.00  0.00    +0.031 A 
ATOM     21  C   UNL     1      14.968 -19.652   4.713  1.00  0.00    +0.015 A 
BRANCH  14  22
ATOM     22  C   UNL     1      17.036 -18.590  -0.871  1.00  0.00    +0.358 C 
ATOM     23  O   UNL     1      18.049 -18.177  -1.413  1.00  0.00    -0.244 OA
BRANCH  22  24
ATOM     24  O   UNL     1      15.833 -18.455  -1.467  1.00  0.00    -0.476 OA
ATOM     25  H   UNL     1      15.976 -18.745  -2.390  1.00  0.00    +0.297 HD
ENDBRANCH  22  24
ENDBRANCH  14  22
BRANCH  19  26
ATOM     26  C   UNL     1      15.607 -21.525   6.292  1.00  0.00    +0.416 C 
ATOM     27  F   UNL     1      16.186 -22.757   6.271  1.00  0.00    -0.166 F 
ATOM     28  F   UNL     1      16.210 -20.842   7.303  1.00  0.00    -0.166 F 
ATOM     29  F   UNL     1      14.320 -21.725   6.688  1.00  0.00    -0.166 F 
ENDBRANCH  19  26
ENDBRANCH   1  12
TORSDOF 7
ENDMDL
MODEL 6
REMARK VINA RESULT:    -8.259      3.020      4.639
REMARK INTER + INTRA:         -12.306
REMARK INTER:                 -11.501
REMARK INTRA:                  -0.805
REMARK UNBOUND:                -0.908
REMARK SMILES COc1ccc(CNc2nc3cc(C(F)(F)F)ccc3nc2C(=O)O)cc1
REMARK SMILES IDX 8 1 7 3 6 4 3 5 4 6 27 7 5 8 26 9 2 10 1 11 9 12 10 13 22 14
REMARK SMILES IDX 11 15 21 16 12 17 20 18 13 19 19 20 18 21 23 22 24 23 25 24
REMARK SMILES IDX 14 26 15 27 16 28 17 29
REMARK H PARENT 8 2 25 25
ROOT
ATOM      1  N   UNL     1      18.188 -21.569   1.913  1.00  0.00    -0.364 N 
ATOM      2  H   UNL     1      19.112 -21.889   2.218  1.00  0.00    +0.162 HD
ENDROOT
BRANCH   1   3
ATOM      3  C   UNL     1      18.266 -20.596   0.834  1.00  0.00    +0.150 C 
BRANCH   3   4
ATOM      4  C   UNL     1      18.768 -21.284  -0.414  1.00  0.00    -0.029 A 
ATOM      5  C   UNL     1      19.732 -22.570  -2.731  1.00  0.00    +0.118 A 
ATOM      6  C   UNL     1      20.140 -23.001  -1.469  1.00  0.00    +0.047 A 
ATOM      7  C   UNL     1      18.846 -21.496  -2.830  1.00  0.00    +0.047 A 
ATOM      8  C   UNL     1      19.663 -22.360  -0.319  1.00  0.00    +0.009 A 
ATOM      9  C   UNL     1      18.367 -20.853  -1.684  1.00  0.00    +0.009 A 
BRANCH   5  10
ATOM     10  O   UNL     1      20.119 -23.104  -3.928  1.00  0.00    -0.497 OA
ATOM     11  C   UNL     1      20.360 -22.191  -4.991  1.00  0.00    +0.278 C 
ENDBRANCH   5  10
ENDBRANCH   3   4
ENDBRANCH   1   3
BRANCH   1  12
ATOM     12  C   UNL     1      17.396 -21.197   3.009  1.00  0.00    +0.160 A 
ATOM     13  N   UNL     1      16.534 -20.160   2.855  1.00  0.00    -0.227 NA
ATOM     14  C   UNL     1      17.374 -21.929   4.207  1.00  0.00    +0.191 A 
ATOM     15  C   UNL     1      15.694 -19.869   3.866  1.00  0.00    +0.092 A 
ATOM     16  N   UNL     1      16.531 -21.647   5.243  1.00  0.00    -0.236 NA
ATOM     17  C   UNL     1      14.806 -18.810   3.729  1.00  0.00    +0.043 A 
ATOM     18  C   UNL     1      15.692 -20.618   5.064  1.00  0.00    +0.090 A 
ATOM     19  C   UNL     1      13.908 -18.458   4.749  1.00  0.00    +0.058 A 
ATOM     20  C   UNL     1      14.800 -20.278   6.072  1.00  0.00    +0.031 A 
ATOM     21  C   UNL     1      13.910 -19.211   5.926  1.00  0.00    +0.015 A 
BRANCH  14  22
ATOM     22  C   UNL     1      18.349 -23.036   4.424  1.00  0.00    +0.358 C 
ATOM     23  O   UNL     1      18.326 -24.131   3.887  1.00  0.00    -0.244 OA
BRANCH  22  24
ATOM     24  O   UNL     1      19.330 -22.716   5.294  1.00  0.00    -0.476 OA
ATOM     25  H   UNL     1      19.093 -23.181   6.121  1.00  0.00    +0.297 HD
ENDBRANCH  22  24
ENDBRANCH  14  22
BRANCH  19  26
ATOM     26  C   UNL     1      12.942 -17.315   4.555  1.00  0.00    +0.416 C 
ATOM     27  F   UNL     1      13.057 -16.727   3.333  1.00  0.00    -0.166 F 
ATOM     28  F   UNL     1      11.646 -17.714   4.661  1.00  0.00    -0.166 F 
ATOM     29  F   UNL     1      13.105 -16.317   5.466  1.00  0.00    -0.166 F 
ENDBRANCH  19  26
ENDBRANCH   1  12
TORSDOF 7
ENDMDL
MODEL 7
REMARK VINA RESULT:    -8.222      3.261      3.765
REMARK INTER + INTRA:         -12.254
REMARK INTER:                 -11.352
REMARK INTRA:                  -0.902
REMARK UNBOUND:                -0.908
REMARK SMILES COc1ccc(CNc2nc3cc(C(F)(F)F)ccc3nc2C(=O)O)cc1
REMARK SMILES IDX 8 1 7 3 6 4 3 5 4 6 27 7 5 8 26 9 2 10 1 11 9 12 10 13 22 14
REMARK SMILES IDX 11 15 21 16 12 17 20 18 13 19 19 20 18 21 23 22 24 23 25 24
REMARK SMILES IDX 14 26 15 27 16 28 17 29
REMARK H PARENT 8 2 25 25
ROOT
ATOM      1  N   UNL     1      18.880 -21.186  -0.198  1.00  0.00    -0.364 N 
ATOM      2  H   UNL     1      19.132 -20.739  -1.084  1.00  0.00    +0.162 HD
ENDROOT
BRANCH   1   3
ATOM      3  C   UNL     1      18.711 -22.625  -0.330  1.00  0.00    +0.150 C 
BRANCH   3   4
ATOM      4  C   UNL     1      19.549 -23.115  -1.488  1.00  0.00    -0.029 A 
ATOM      5  C   UNL     1      21.089 -24.030  -3.665  1.00  0.00    +0.118 A 
ATOM      6  C   UNL     1      20.068 -23.102  -3.870  1.00  0.00    +0.047 A 
ATOM      7  C   UNL     1      21.334 -24.499  -2.373  1.00  0.00    +0.047 A 
ATOM      8  C   UNL     1      19.302 -22.650  -2.788  1.00  0.00    +0.009 A 
ATOM      9  C   UNL     1      20.571 -24.050  -1.291  1.00  0.00    +0.009 A 
BRANCH   5  10
ATOM     10  O   UNL     1      21.908 -24.551  -4.628  1.00  0.00    -0.497 OA
ATOM     11  C   UNL     1      23.186 -25.008  -4.204  1.00  0.00    +0.278 C 
ENDBRANCH   5  10
ENDBRANCH   3   4
ENDBRANCH   1   3
BRANCH   1  12
ATOM     12  C   UNL     1      17.825 -20.506   0.428  1.00  0.00    +0.160 A 
ATOM     13  N   UNL     1      17.419 -20.938   1.649  1.00  0.00    -0.227 NA
ATOM     14  C   UNL     1      17.264 -19.332  -0.101  1.00  0.00    +0.191 A 
ATOM     15  C   UNL     1      16.482 -20.224   2.303  1.00  0.00    +0.092 A 
ATOM     16  N   UNL     1      16.312 -18.598   0.546  1.00  0.00    -0.236 NA
ATOM     17  C   UNL     1      16.051 -20.651   3.552  1.00  0.00    +0.043 A 
ATOM     18  C   UNL     1      15.930 -19.048   1.748  1.00  0.00    +0.090 A 
ATOM     19  C   UNL     1      15.076 -19.950   4.280  1.00  0.00    +0.058 A 
ATOM     20  C   UNL     1      14.971 -18.347   2.468  1.00  0.00    +0.031 A 
ATOM     21  C   UNL     1      14.543 -18.783   3.725  1.00  0.00    +0.015 A 
BRANCH  14  22
ATOM     22  C   UNL     1      17.651 -18.868  -1.464  1.00  0.00    +0.358 C 
ATOM     23  O   UNL     1      18.113 -17.775  -1.749  1.00  0.00    -0.244 OA
BRANCH  22  24
ATOM     24  O   UNL     1      17.463 -19.805  -2.417  1.00  0.00    -0.476 OA
ATOM     25  H   UNL     1      17.381 -20.648  -1.928  1.00  0.00    +0.297 HD
ENDBRANCH  22  24
ENDBRANCH  14  22
BRANCH  19  26
ATOM     26  C   UNL     1      14.649 -20.431   5.644  1.00  0.00    +0.416 C 
ATOM     27  F   UNL     1      13.635 -19.693   6.172  1.00  0.00    -0.166 F 
ATOM     28  F   UNL     1      14.205 -21.717   5.619  1.00  0.00    -0.166 F 
ATOM     29  F   UNL     1      15.653 -20.397   6.562  1.00  0.00    -0.166 F 
ENDBRANCH  19  26
ENDBRANCH   1  12
TORSDOF 7
ENDMDL
MODEL 8
REMARK VINA RESULT:    -8.119      2.895      3.810
REMARK INTER + INTRA:         -12.112
REMARK INTER:                 -11.048
REMARK INTRA:                  -1.064
REMARK UNBOUND:                -0.908
REMARK SMILES COc1ccc(CNc2nc3cc(C(F)(F)F)ccc3nc2C(=O)O)cc1
REMARK SMILES IDX 8 1 7 3 6 4 3 5 4 6 27 7 5 8 26 9 2 10 1 11 9 12 10 13 22 14
REMARK SMILES IDX 11 15 21 16 12 17 20 18 13 19 19 20 18 21 23 22 24 23 25 24
REMARK SMILES IDX 14 26 15 27 16 28 17 29
REMARK H PARENT 8 2 25 25
ROOT
ATOM      1  N   UNL     1      18.341 -21.851   1.915  1.00  0.00    -0.364 N 
ATOM      2  H   UNL     1      18.999 -21.143   1.578  1.00  0.00    +0.162 HD
ENDROOT
BRANCH   1   3
ATOM      3  C   UNL     1      17.561 -22.441   0.837  1.00  0.00    +0.150 C 
BRANCH   3   4
ATOM      4  C   UNL     1      17.927 -23.902   0.707  1.00  0.00    -0.029 A 
ATOM      5  C   UNL     1      18.589 -26.633   0.484  1.00  0.00    +0.118 A 
ATOM      6  C   UNL     1      17.255 -26.242   0.590  1.00  0.00    +0.047 A 
ATOM      7  C   UNL     1      19.588 -25.657   0.494  1.00  0.00    +0.047 A 
ATOM      8  C   UNL     1      16.927 -24.885   0.703  1.00  0.00    +0.009 A 
ATOM      9  C   UNL     1      19.265 -24.302   0.607  1.00  0.00    +0.009 A 
BRANCH   5  10
ATOM     10  O   UNL     1      19.045 -27.917   0.368  1.00  0.00    -0.497 OA
ATOM     11  C   UNL     1      19.570 -28.299  -0.897  1.00  0.00    +0.278 C 
ENDBRANCH   5  10
ENDBRANCH   3   4
ENDBRANCH   1   3
BRANCH   1  12
ATOM     12  C   UNL     1      17.603 -21.376   3.008  1.00  0.00    +0.160 A 
ATOM     13  N   UNL     1      16.703 -20.382   2.791  1.00  0.00    -0.227 NA
ATOM     14  C   UNL     1      17.670 -21.968   4.280  1.00  0.00    +0.191 A 
ATOM     15  C   UNL     1      15.915 -19.997   3.813  1.00  0.00    +0.092 A 
ATOM     16  N   UNL     1      16.881 -21.589   5.327  1.00  0.00    -0.236 NA
ATOM     17  C   UNL     1      14.990 -18.980   3.612  1.00  0.00    +0.043 A 
ATOM     18  C   UNL     1      16.003 -20.606   5.085  1.00  0.00    +0.090 A 
ATOM     19  C   UNL     1      14.142 -18.535   4.639  1.00  0.00    +0.058 A 
ATOM     20  C   UNL     1      15.161 -20.174   6.101  1.00  0.00    +0.031 A 
ATOM     21  C   UNL     1      14.233 -19.150   5.890  1.00  0.00    +0.015 A 
BRANCH  14  22
ATOM     22  C   UNL     1      18.687 -23.021   4.559  1.00  0.00    +0.358 C 
ATOM     23  O   UNL     1      18.709 -24.146   4.087  1.00  0.00    -0.244 OA
BRANCH  22  24
ATOM     24  O   UNL     1      19.654 -22.613   5.409  1.00  0.00    -0.476 OA
ATOM     25  H   UNL     1      19.415 -23.009   6.270  1.00  0.00    +0.297 HD
ENDBRANCH  22  24
ENDBRANCH  14  22
BRANCH  19  26
ATOM     26  C   UNL     1      13.135 -17.444   4.377  1.00  0.00    +0.416 C 
ATOM     27  F   UNL     1      13.115 -17.043   3.076  1.00  0.00    -0.166 F 
ATOM     28  F   UNL     1      11.865 -17.835   4.670  1.00  0.00    -0.166 F 
ATOM     29  F   UNL     1      13.361 -16.320   5.110  1.00  0.00    -0.166 F 
ENDBRANCH  19  26
ENDBRANCH   1  12
TORSDOF 7
ENDMDL
MODEL 9
REMARK VINA RESULT:    -8.073      3.363      4.550
REMARK INTER + INTRA:         -12.050
REMARK INTER:                 -10.938
REMARK INTRA:                  -1.112
REMARK UNBOUND:                -0.908
REMARK SMILES COc1ccc(CNc2nc3cc(C(F)(F)F)ccc3nc2C(=O)O)cc1
REMARK SMILES IDX 8 1 7 3 6 4 3 5 4 6 27 7 5 8 26 9 2 10 1 11 9 12 10 13 22 14
REMARK SMILES IDX 11 15 21 16 12 17 20 18 13 19 19 20 18 21 23 22 24 23 25 24
REMARK SMILES IDX 14 26 15 27 16 28 17 29
REMARK H PARENT 8 2 25 25
ROOT
ATOM      1  N   UNL     1      17.152 -22.719   2.397  1.00  0.00    -0.364 N 
ATOM      2  H   UNL     1      17.633 -23.544   2.768  1.00  0.00    +0.162 HD
ENDROOT
BRANCH   1   3
ATOM      3  C   UNL     1      17.796 -22.192   1.203  1.00  0.00    +0.150 C 
BRANCH   3   4
ATOM      4  C   UNL     1      19.230 -22.669   1.165  1.00  0.00    -0.029 A 
ATOM      5  C   UNL     1      21.895 -23.586   1.100  1.00  0.00    +0.118 A 
ATOM      6  C   UNL     1      20.874 -24.360   0.549  1.00  0.00    +0.047 A 
ATOM      7  C   UNL     1      21.579 -22.357   1.685  1.00  0.00    +0.047 A 
ATOM      8  C   UNL     1      19.551 -23.905   0.584  1.00  0.00    +0.009 A 
ATOM      9  C   UNL     1      20.259 -21.900   1.722  1.00  0.00    +0.009 A 
BRANCH   5  10
ATOM     10  O   UNL     1      23.223 -23.909   1.133  1.00  0.00    -0.497 OA
ATOM     11  C   UNL     1      23.802 -24.117   2.415  1.00  0.00    +0.278 C 
ENDBRANCH   5  10
ENDBRANCH   3   4
ENDBRANCH   1   3
BRANCH   1  12
ATOM     12  C   UNL     1      16.896 -21.786   3.410  1.00  0.00    +0.160 A 
ATOM     13  N   UNL     1      15.922 -20.863   3.201  1.00  0.00    -0.227 NA
ATOM     14  C   UNL     1      17.518 -21.846   4.668  1.00  0.00    +0.191 A 
ATOM     15  C   UNL     1      15.596 -20.034   4.211  1.00  0.00    +0.092 A 
ATOM     16  N   UNL     1      17.202 -21.013   5.702  1.00  0.00    -0.236 NA
ATOM     17  C   UNL     1      14.603 -19.082   4.016  1.00  0.00    +0.043 A 
ATOM     18  C   UNL     1      16.238 -20.113   5.468  1.00  0.00    +0.090 A 
ATOM     19  C   UNL     1      14.222 -18.190   5.031  1.00  0.00    +0.058 A 
ATOM     20  C   UNL     1      15.858 -19.237   6.476  1.00  0.00    +0.031 A 
ATOM     21  C   UNL     1      14.858 -18.282   6.271  1.00  0.00    +0.015 A 
BRANCH  14  22
ATOM     22  C   UNL     1      18.629 -22.811   4.905  1.00  0.00    +0.358 C 
ATOM     23  O   UNL     1      18.710 -23.942   4.455  1.00  0.00    -0.244 OA
BRANCH  22  24
ATOM     24  O   UNL     1      19.609 -22.309   5.685  1.00  0.00    -0.476 OA
ATOM     25  H   UNL     1      19.502 -21.338   5.631  1.00  0.00    +0.297 HD
ENDBRANCH  22  24
ENDBRANCH  14  22
BRANCH  19  26
ATOM     26  C   UNL     1      13.124 -17.184   4.789  1.00  0.00    +0.416 C 
ATOM     27  F   UNL     1      11.879 -17.723   4.903  1.00  0.00    -0.166 F 
ATOM     28  F   UNL     1      13.170 -16.151   5.674  1.00  0.00    -0.166 F 
ATOM     29  F   UNL     1      13.176 -16.623   3.551  1.00  0.00    -0.166 F 
ENDBRANCH  19  26
ENDBRANCH   1  12
TORSDOF 7
ENDMDL
