MODEL 1
REMARK VINA RESULT:    -9.485      0.000      0.000
REMARK INTER + INTRA:         -14.424
REMARK INTER:                 -13.089
REMARK INTRA:                  -1.335
REMARK UNBOUND:                -1.335
REMARK SMILES CC1(c2ccc(S(N)(=O)=O)cc2)NC(=O)N(CC(=O)c2ccc(C(F)(F)F)cc2)C1=O
REMARK SMILES IDX 1 1 2 2 13 3 14 4 15 5 16 6 30 7 31 8 3 10 4 11 12 12 5 13
REMARK SMILES IDX 11 14 6 15 7 16 9 17 10 18 8 19 17 22 18 23 19 24 20 25
REMARK SMILES IDX 21 26 29 27 22 28 28 29 23 30 24 31 25 32 26 33 27 34
REMARK H PARENT 13 9 8 20 8 21
ROOT
ATOM      1  C   UNL     1      18.363 -22.545  -2.488  1.00  0.00    +0.051 C 
ATOM      2  C   UNL     1      18.381 -21.648  -1.247  1.00  0.00    +0.144 C 
ATOM      3  N   UNL     1      18.804 -20.316  -1.635  1.00  0.00    -0.319 N 
ATOM      4  C   UNL     1      17.843 -19.365  -1.397  1.00  0.00    +0.325 C 
ATOM      5  O   UNL     1      17.996 -18.173  -1.608  1.00  0.00    -0.248 OA
ATOM      6  N   UNL     1      16.730 -19.979  -0.924  1.00  0.00    -0.254 N 
ATOM      7  C   UNL     1      16.931 -21.326  -0.809  1.00  0.00    +0.261 C 
ATOM      8  O   UNL     1      16.093 -22.141  -0.440  1.00  0.00    -0.271 OA
ATOM      9  H   UNL     1      19.726 -20.062  -1.960  1.00  0.00    +0.166 HD
ENDROOT
BRANCH   2  10
ATOM     10  C   UNL     1      19.199 -22.230  -0.093  1.00  0.00    -0.013 A 
ATOM     11  C   UNL     1      19.624 -23.572  -0.077  1.00  0.00    +0.008 A 
ATOM     12  C   UNL     1      19.572 -21.410   0.990  1.00  0.00    +0.008 A 
ATOM     13  C   UNL     1      20.375 -24.080   0.987  1.00  0.00    +0.022 A 
ATOM     14  C   UNL     1      20.323 -21.910   2.057  1.00  0.00    +0.022 A 
ATOM     15  C   UNL     1      20.728 -23.244   2.046  1.00  0.00    +0.082 A 
BRANCH  15  16
ATOM     16  S   UNL     1      21.653 -23.892   3.405  1.00  0.00    +0.238 S 
ATOM     17  O   UNL     1      21.496 -25.328   3.444  1.00  0.00    -0.207 OA
ATOM     18  O   UNL     1      22.948 -23.256   3.445  1.00  0.00    -0.207 OA
BRANCH  16  19
ATOM     19  N   UNL     1      20.801 -23.298   4.723  1.00  0.00    -0.225 NA
ATOM     20  H   UNL     1      21.392 -22.668   5.266  1.00  0.00    +0.137 HD
ATOM     21  H   UNL     1      19.924 -22.882   4.412  1.00  0.00    +0.137 HD
ENDBRANCH  16  19
ENDBRANCH  15  16
ENDBRANCH   2  10
BRANCH   6  22
ATOM     22  C   UNL     1      15.535 -19.286  -0.501  1.00  0.00    +0.211 C 
BRANCH  22  23
ATOM     23  C   UNL     1      15.834 -18.486   0.763  1.00  0.00    +0.182 C 
ATOM     24  O   UNL     1      16.093 -17.282   0.745  1.00  0.00    -0.292 OA
BRANCH  23  25
ATOM     25  C   UNL     1      15.816 -19.202   2.076  1.00  0.00    +0.019 A 
ATOM     26  C   UNL     1      14.845 -18.836   3.020  1.00  0.00    +0.012 A 
ATOM     27  C   UNL     1      16.728 -20.214   2.396  1.00  0.00    +0.012 A 
ATOM     28  C   UNL     1      14.784 -19.474   4.262  1.00  0.00    +0.014 A 
ATOM     29  C   UNL     1      16.665 -20.852   3.641  1.00  0.00    +0.014 A 
ATOM     30  C   UNL     1      15.688 -20.494   4.583  1.00  0.00    +0.056 A 
BRANCH  30  31
ATOM     31  C   UNL     1      15.639 -21.170   5.934  1.00  0.00    +0.416 C 
ATOM     32  F   UNL     1      16.116 -22.446   5.906  1.00  0.00    -0.166 F 
ATOM     33  F   UNL     1      16.383 -20.514   6.865  1.00  0.00    -0.166 F 
ATOM     34  F   UNL     1      14.381 -21.254   6.447  1.00  0.00    -0.166 F 
ENDBRANCH  30  31
ENDBRANCH  23  25
ENDBRANCH  22  23
ENDBRANCH   6  22
TORSDOF 7
ENDMDL
MODEL 2
REMARK VINA RESULT:    -8.985      3.460      5.393
REMARK INTER + INTRA:         -13.735
REMARK INTER:                 -12.735
REMARK INTRA:                  -1.000
REMARK UNBOUND:                -1.335
REMARK SMILES CC1(c2ccc(S(N)(=O)=O)cc2)NC(=O)N(CC(=O)c2ccc(C(F)(F)F)cc2)C1=O
REMARK SMILES IDX 1 1 2 2 13 3 14 4 15 5 16 6 30 7 31 8 3 10 4 11 12 12 5 13
REMARK SMILES IDX 11 14 6 15 7 16 9 17 10 18 8 19 17 22 18 23 19 24 20 25
REMARK SMILES IDX 21 26 29 27 22 28 28 29 23 30 24 31 25 32 26 33 27 34
REMARK H PARENT 13 9 8 20 8 21
ROOT
ATOM      1  C   UNL     1      21.148 -22.634   1.660  1.00  0.00    +0.051 C 
ATOM      2  C   UNL     1      19.892 -22.990   0.860  1.00  0.00    +0.144 C 
ATOM      3  N   UNL     1      19.504 -24.351   1.172  1.00  0.00    -0.319 N 
ATOM      4  C   UNL     1      18.259 -24.429   1.748  1.00  0.00    +0.325 C 
ATOM      5  O   UNL     1      17.715 -25.476   2.056  1.00  0.00    -0.248 OA
ATOM      6  N   UNL     1      17.781 -23.172   1.922  1.00  0.00    -0.254 N 
ATOM      7  C   UNL     1      18.666 -22.246   1.447  1.00  0.00    +0.261 C 
ATOM      8  O   UNL     1      18.520 -21.029   1.499  1.00  0.00    -0.271 OA
ATOM      9  H   UNL     1      20.021 -25.183   0.926  1.00  0.00    +0.166 HD
ENDROOT
BRANCH   2  10
ATOM     10  C   UNL     1      20.038 -22.731  -0.640  1.00  0.00    -0.013 A 
ATOM     11  C   UNL     1      18.924 -22.532  -1.479  1.00  0.00    +0.008 A 
ATOM     12  C   UNL     1      21.319 -22.660  -1.221  1.00  0.00    +0.008 A 
ATOM     13  C   UNL     1      19.084 -22.293  -2.847  1.00  0.00    +0.022 A 
ATOM     14  C   UNL     1      21.487 -22.420  -2.588  1.00  0.00    +0.022 A 
ATOM     15  C   UNL     1      20.365 -22.230  -3.394  1.00  0.00    +0.082 A 
BRANCH  15  16
ATOM     16  S   UNL     1      20.567 -21.955  -5.127  1.00  0.00    +0.238 S 
ATOM     17  O   UNL     1      21.818 -21.269  -5.357  1.00  0.00    -0.207 OA
ATOM     18  O   UNL     1      20.201 -23.152  -5.845  1.00  0.00    -0.207 OA
BRANCH  16  19
ATOM     19  N   UNL     1      19.360 -20.834  -5.446  1.00  0.00    -0.225 NA
ATOM     20  H   UNL     1      18.444 -21.279  -5.383  1.00  0.00    +0.137 HD
ATOM     21  H   UNL     1      19.470 -20.020  -4.841  1.00  0.00    +0.137 HD
ENDBRANCH  16  19
ENDBRANCH  15  16
ENDBRANCH   2  10
BRANCH   6  22
ATOM     22  C   UNL     1      16.468 -22.865   2.442  1.00  0.00    +0.211 C 
BRANCH  22  23
ATOM     23  C   UNL     1      16.597 -22.350   3.872  1.00  0.00    +0.182 C 
ATOM     24  O   UNL     1      17.421 -22.798   4.670  1.00  0.00    -0.292 OA
BRANCH  23  25
ATOM     25  C   UNL     1      15.676 -21.259   4.319  1.00  0.00    +0.019 A 
ATOM     26  C   UNL     1      15.760 -20.015   3.679  1.00  0.00    +0.012 A 
ATOM     27  C   UNL     1      14.743 -21.435   5.347  1.00  0.00    +0.012 A 
ATOM     28  C   UNL     1      14.923 -18.961   4.058  1.00  0.00    +0.014 A 
ATOM     29  C   UNL     1      13.904 -20.379   5.725  1.00  0.00    +0.014 A 
ATOM     30  C   UNL     1      13.980 -19.134   5.079  1.00  0.00    +0.056 A 
BRANCH  30  31
ATOM     31  C   UNL     1      13.089 -17.992   5.507  1.00  0.00    +0.416 C 
ATOM     32  F   UNL     1      12.045 -17.785   4.657  1.00  0.00    -0.166 F 
ATOM     33  F   UNL     1      12.536 -18.201   6.733  1.00  0.00    -0.166 F 
ATOM     34  F   UNL     1      13.744 -16.801   5.588  1.00  0.00    -0.166 F 
ENDBRANCH  30  31
ENDBRANCH  23  25
ENDBRANCH  22  23
ENDBRANCH   6  22
TORSDOF 7
ENDMDL
MODEL 3
REMARK VINA RESULT:    -8.913      3.187      5.901
REMARK INTER + INTRA:         -13.635
REMARK INTER:                 -11.665
REMARK INTRA:                  -1.969
REMARK UNBOUND:                -1.335
REMARK SMILES CC1(c2ccc(S(N)(=O)=O)cc2)NC(=O)N(CC(=O)c2ccc(C(F)(F)F)cc2)C1=O
REMARK SMILES IDX 1 1 2 2 13 3 14 4 15 5 16 6 30 7 31 8 3 10 4 11 12 12 5 13
REMARK SMILES IDX 11 14 6 15 7 16 9 17 10 18 8 19 17 22 18 23 19 24 20 25
REMARK SMILES IDX 21 26 29 27 22 28 28 29 23 30 24 31 25 32 26 33 27 34
REMARK H PARENT 13 9 8 20 8 21
ROOT
ATOM      1  C   UNL     1      17.362 -18.391  -0.740  1.00  0.00    +0.051 C 
ATOM      2  C   UNL     1      16.727 -19.470   0.141  1.00  0.00    +0.144 C 
ATOM      3  N   UNL     1      16.031 -20.420  -0.704  1.00  0.00    -0.319 N 
ATOM      4  C   UNL     1      16.544 -21.690  -0.608  1.00  0.00    +0.325 C 
ATOM      5  O   UNL     1      16.088 -22.656  -1.198  1.00  0.00    -0.248 OA
ATOM      6  N   UNL     1      17.620 -21.664   0.217  1.00  0.00    -0.254 N 
ATOM      7  C   UNL     1      17.827 -20.404   0.704  1.00  0.00    +0.261 C 
ATOM      8  O   UNL     1      18.745 -20.070   1.445  1.00  0.00    -0.271 OA
ATOM      9  H   UNL     1      15.201 -20.228  -1.246  1.00  0.00    +0.166 HD
ENDROOT
BRANCH   2  10
ATOM     10  C   UNL     1      15.852 -18.900   1.258  1.00  0.00    -0.013 A 
ATOM     11  C   UNL     1      15.792 -19.486   2.537  1.00  0.00    +0.008 A 
ATOM     12  C   UNL     1      15.091 -17.736   1.032  1.00  0.00    +0.008 A 
ATOM     13  C   UNL     1      14.987 -18.943   3.544  1.00  0.00    +0.022 A 
ATOM     14  C   UNL     1      14.286 -17.187   2.034  1.00  0.00    +0.022 A 
ATOM     15  C   UNL     1      14.244 -17.790   3.289  1.00  0.00    +0.082 A 
BRANCH  15  16
ATOM     16  S   UNL     1      13.206 -17.120   4.552  1.00  0.00    +0.238 S 
ATOM     17  O   UNL     1      13.996 -16.275   5.417  1.00  0.00    -0.207 OA
ATOM     18  O   UNL     1      11.966 -16.674   3.962  1.00  0.00    -0.207 OA
BRANCH  16  19
ATOM     19  N   UNL     1      12.828 -18.482   5.455  1.00  0.00    -0.225 NA
ATOM     20  H   UNL     1      11.949 -18.340   5.952  1.00  0.00    +0.137 HD
ATOM     21  H   UNL     1      12.842 -19.310   4.860  1.00  0.00    +0.137 HD
ENDBRANCH  16  19
ENDBRANCH  15  16
ENDBRANCH   2  10
BRANCH   6  22
ATOM     22  C   UNL     1      18.376 -22.832   0.607  1.00  0.00    +0.211 C 
BRANCH  22  23
ATOM     23  C   UNL     1      17.562 -23.652   1.603  1.00  0.00    +0.182 C 
ATOM     24  O   UNL     1      17.227 -24.818   1.390  1.00  0.00    -0.292 OA
BRANCH  23  25
ATOM     25  C   UNL     1      17.153 -23.005   2.888  1.00  0.00    +0.019 A 
ATOM     26  C   UNL     1      15.784 -22.868   3.157  1.00  0.00    +0.012 A 
ATOM     27  C   UNL     1      18.082 -22.531   3.822  1.00  0.00    +0.012 A 
ATOM     28  C   UNL     1      15.348 -22.270   4.343  1.00  0.00    +0.014 A 
ATOM     29  C   UNL     1      17.643 -21.933   5.010  1.00  0.00    +0.014 A 
ATOM     30  C   UNL     1      16.273 -21.804   5.287  1.00  0.00    +0.056 A 
BRANCH  30  31
ATOM     31  C   UNL     1      15.806 -21.137   6.559  1.00  0.00    +0.416 C 
ATOM     32  F   UNL     1      14.454 -20.980   6.612  1.00  0.00    -0.166 F 
ATOM     33  F   UNL     1      16.143 -21.850   7.668  1.00  0.00    -0.166 F 
ATOM     34  F   UNL     1      16.331 -19.893   6.737  1.00  0.00    -0.166 F 
ENDBRANCH  30  31
ENDBRANCH  23  25
ENDBRANCH  22  23
ENDBRANCH   6  22
TORSDOF 7
ENDMDL
MODEL 4
REMARK VINA RESULT:    -8.868      2.235      2.810
REMARK INTER + INTRA:         -13.572
REMARK INTER:                 -12.721
REMARK INTRA:                  -0.852
REMARK UNBOUND:                -1.335
REMARK SMILES CC1(c2ccc(S(N)(=O)=O)cc2)NC(=O)N(CC(=O)c2ccc(C(F)(F)F)cc2)C1=O
REMARK SMILES IDX 1 1 2 2 13 3 14 4 15 5 16 6 30 7 31 8 3 10 4 11 12 12 5 13
REMARK SMILES IDX 11 14 6 15 7 16 9 17 10 18 8 19 17 22 18 23 19 24 20 25
REMARK SMILES IDX 21 26 29 27 22 28 28 29 23 30 24 31 25 32 26 33 27 34
REMARK H PARENT 13 9 8 20 8 21
ROOT
ATOM      1  C   UNL     1      18.280 -22.633  -2.562  1.00  0.00    +0.051 C 
ATOM      2  C   UNL     1      18.582 -21.681  -1.400  1.00  0.00    +0.144 C 
ATOM      3  N   UNL     1      18.809 -20.350  -1.928  1.00  0.00    -0.319 N 
ATOM      4  C   UNL     1      17.895 -19.435  -1.468  1.00  0.00    +0.325 C 
ATOM      5  O   UNL     1      17.918 -18.248  -1.749  1.00  0.00    -0.248 OA
ATOM      6  N   UNL     1      16.987 -20.077  -0.692  1.00  0.00    -0.254 N 
ATOM      7  C   UNL     1      17.287 -21.407  -0.594  1.00  0.00    +0.261 C 
ATOM      8  O   UNL     1      16.627 -22.243   0.012  1.00  0.00    -0.271 OA
ATOM      9  H   UNL     1      19.593 -20.069  -2.499  1.00  0.00    +0.166 HD
ENDROOT
BRANCH   2  10
ATOM     10  C   UNL     1      19.711 -22.173  -0.494  1.00  0.00    -0.013 A 
ATOM     11  C   UNL     1      19.813 -21.785   0.856  1.00  0.00    +0.008 A 
ATOM     12  C   UNL     1      20.680 -23.064  -0.997  1.00  0.00    +0.008 A 
ATOM     13  C   UNL     1      20.853 -22.253   1.666  1.00  0.00    +0.022 A 
ATOM     14  C   UNL     1      21.721 -23.536  -0.193  1.00  0.00    +0.022 A 
ATOM     15  C   UNL     1      21.798 -23.133   1.139  1.00  0.00    +0.082 A 
BRANCH  15  16
ATOM     16  S   UNL     1      23.128 -23.702   2.154  1.00  0.00    +0.238 S 
ATOM     17  O   UNL     1      22.666 -24.802   2.969  1.00  0.00    -0.207 OA
ATOM     18  O   UNL     1      24.331 -23.782   1.360  1.00  0.00    -0.207 OA
BRANCH  16  19
ATOM     19  N   UNL     1      23.347 -22.410   3.201  1.00  0.00    -0.225 NA
ATOM     20  H   UNL     1      24.281 -22.444   3.609  1.00  0.00    +0.137 HD
ATOM     21  H   UNL     1      23.132 -21.534   2.724  1.00  0.00    +0.137 HD
ENDBRANCH  16  19
ENDBRANCH  15  16
ENDBRANCH   2  10
BRANCH   6  22
ATOM     22  C   UNL     1      15.913 -19.422   0.019  1.00  0.00    +0.211 C 
BRANCH  22  23
ATOM     23  C   UNL     1      16.340 -19.170   1.462  1.00  0.00    +0.182 C 
ATOM     24  O   UNL     1      17.481 -19.393   1.868  1.00  0.00    -0.292 OA
BRANCH  23  25
ATOM     25  C   UNL     1      15.324 -18.633   2.419  1.00  0.00    +0.019 A 
ATOM     26  C   UNL     1      14.588 -17.501   2.041  1.00  0.00    +0.012 A 
ATOM     27  C   UNL     1      15.085 -19.215   3.669  1.00  0.00    +0.012 A 
ATOM     28  C   UNL     1      13.626 -16.959   2.898  1.00  0.00    +0.014 A 
ATOM     29  C   UNL     1      14.120 -18.671   4.526  1.00  0.00    +0.014 A 
ATOM     30  C   UNL     1      13.375 -17.543   4.146  1.00  0.00    +0.056 A 
BRANCH  30  31
ATOM     31  C   UNL     1      12.352 -16.947   5.085  1.00  0.00    +0.416 C 
ATOM     32  F   UNL     1      11.890 -17.840   6.003  1.00  0.00    -0.166 F 
ATOM     33  F   UNL     1      12.854 -15.902   5.798  1.00  0.00    -0.166 F 
ATOM     34  F   UNL     1      11.250 -16.470   4.444  1.00  0.00    -0.166 F 
ENDBRANCH  30  31
ENDBRANCH  23  25
ENDBRANCH  22  23
ENDBRANCH   6  22
TORSDOF 7
ENDMDL
MODEL 5
REMARK VINA RESULT:    -8.866      3.383      5.145
REMARK INTER + INTRA:         -13.571
REMARK INTER:                 -12.537
REMARK INTRA:                  -1.034
REMARK UNBOUND:                -1.335
REMARK SMILES CC1(c2ccc(S(N)(=O)=O)cc2)NC(=O)N(CC(=O)c2ccc(C(F)(F)F)cc2)C1=O
REMARK SMILES IDX 1 1 2 2 13 3 14 4 15 5 16 6 30 7 31 8 3 10 4 11 12 12 5 13
REMARK SMILES IDX 11 14 6 15 7 16 9 17 10 18 8 19 17 22 18 23 19 24 20 25
REMARK SMILES IDX 21 26 29 27 22 28 28 29 23 30 24 31 25 32 26 33 27 34
REMARK H PARENT 13 9 8 20 8 21
ROOT
ATOM      1  C   UNL     1      20.285 -24.925   0.973  1.00  0.00    +0.051 C 
ATOM      2  C   UNL     1      19.393 -23.773   0.501  1.00  0.00    +0.144 C 
ATOM      3  N   UNL     1      18.004 -24.170   0.625  1.00  0.00    -0.319 N 
ATOM      4  C   UNL     1      17.301 -23.377   1.497  1.00  0.00    +0.325 C 
ATOM      5  O   UNL     1      16.109 -23.503   1.725  1.00  0.00    -0.248 OA
ATOM      6  N   UNL     1      18.152 -22.478   2.051  1.00  0.00    -0.254 N 
ATOM      7  C   UNL     1      19.414 -22.629   1.546  1.00  0.00    +0.261 C 
ATOM      8  O   UNL     1      20.398 -21.981   1.884  1.00  0.00    -0.271 OA
ATOM      9  H   UNL     1      17.546 -24.886   0.079  1.00  0.00    +0.166 HD
ENDROOT
BRANCH   2  10
ATOM     10  C   UNL     1      19.753 -23.262  -0.894  1.00  0.00    -0.013 A 
ATOM     11  C   UNL     1      20.645 -23.952  -1.738  1.00  0.00    +0.008 A 
ATOM     12  C   UNL     1      19.169 -22.077  -1.384  1.00  0.00    +0.008 A 
ATOM     13  C   UNL     1      20.956 -23.468  -3.013  1.00  0.00    +0.022 A 
ATOM     14  C   UNL     1      19.474 -21.588  -2.657  1.00  0.00    +0.022 A 
ATOM     15  C   UNL     1      20.362 -22.291  -3.469  1.00  0.00    +0.082 A 
BRANCH  15  16
ATOM     16  S   UNL     1      20.775 -21.663  -5.068  1.00  0.00    +0.238 S 
ATOM     17  O   UNL     1      21.816 -20.670  -4.934  1.00  0.00    -0.207 OA
ATOM     18  O   UNL     1      20.873 -22.762  -6.000  1.00  0.00    -0.207 OA
BRANCH  16  19
ATOM     19  N   UNL     1      19.384 -20.823  -5.484  1.00  0.00    -0.225 NA
ATOM     20  H   UNL     1      18.783 -21.407  -6.065  1.00  0.00    +0.137 HD
ATOM     21  H   UNL     1      18.930 -20.462  -4.645  1.00  0.00    +0.137 HD
ENDBRANCH  16  19
ENDBRANCH  15  16
ENDBRANCH   2  10
BRANCH   6  22
ATOM     22  C   UNL     1      17.753 -21.435   2.968  1.00  0.00    +0.211 C 
BRANCH  22  23
ATOM     23  C   UNL     1      17.109 -20.293   2.187  1.00  0.00    +0.182 C 
ATOM     24  O   UNL     1      17.474 -19.970   1.056  1.00  0.00    -0.292 OA
BRANCH  23  25
ATOM     25  C   UNL     1      15.992 -19.535   2.832  1.00  0.00    +0.019 A 
ATOM     26  C   UNL     1      15.684 -19.816   4.170  1.00  0.00    +0.012 A 
ATOM     27  C   UNL     1      15.248 -18.565   2.150  1.00  0.00    +0.012 A 
ATOM     28  C   UNL     1      14.650 -19.137   4.820  1.00  0.00    +0.014 A 
ATOM     29  C   UNL     1      14.213 -17.885   2.804  1.00  0.00    +0.014 A 
ATOM     30  C   UNL     1      13.908 -18.158   4.146  1.00  0.00    +0.056 A 
BRANCH  30  31
ATOM     31  C   UNL     1      12.775 -17.437   4.838  1.00  0.00    +0.416 C 
ATOM     32  F   UNL     1      11.943 -18.279   5.513  1.00  0.00    -0.166 F 
ATOM     33  F   UNL     1      13.221 -16.537   5.757  1.00  0.00    -0.166 F 
ATOM     34  F   UNL     1      11.981 -16.738   3.981  1.00  0.00    -0.166 F 
ENDBRANCH  30  31
ENDBRANCH  23  25
ENDBRANCH  22  23
ENDBRANCH   6  22
TORSDOF 7
ENDMDL
MODEL 6
REMARK VINA RESULT:    -8.502      5.663      8.677
REMARK INTER + INTRA:         -13.068
REMARK INTER:                 -12.185
REMARK INTRA:                  -0.883
REMARK UNBOUND:                -1.335
REMARK SMILES CC1(c2ccc(S(N)(=O)=O)cc2)NC(=O)N(CC(=O)c2ccc(C(F)(F)F)cc2)C1=O
REMARK SMILES IDX 1 1 2 2 13 3 14 4 15 5 16 6 30 7 31 8 3 10 4 11 12 12 5 13
REMARK SMILES IDX 11 14 6 15 7 16 9 17 10 18 8 19 17 22 18 23 19 24 20 25
REMARK SMILES IDX 21 26 29 27 22 28 28 29 23 30 24 31 25 32 26 33 27 34
REMARK H PARENT 13 9 8 20 8 21
ROOT
ATOM      1  C   UNL     1      17.239 -23.782   2.831  1.00  0.00    +0.051 C 
ATOM      2  C   UNL     1      17.616 -22.343   2.465  1.00  0.00    +0.144 C 
ATOM      3  N   UNL     1      19.014 -22.128   2.779  1.00  0.00    -0.319 N 
ATOM      4  C   UNL     1      19.765 -21.821   1.671  1.00  0.00    +0.325 C 
ATOM      5  O   UNL     1      20.957 -21.560   1.706  1.00  0.00    -0.248 OA
ATOM      6  N   UNL     1      18.969 -21.881   0.575  1.00  0.00    -0.254 N 
ATOM      7  C   UNL     1      17.685 -22.194   0.925  1.00  0.00    +0.261 C 
ATOM      8  O   UNL     1      16.753 -22.351   0.144  1.00  0.00    -0.271 OA
ATOM      9  H   UNL     1      19.413 -22.106   3.707  1.00  0.00    +0.166 HD
ENDROOT
BRANCH   2  10
ATOM     10  C   UNL     1      16.688 -21.300   3.087  1.00  0.00    -0.013 A 
ATOM     11  C   UNL     1      16.505 -20.024   2.519  1.00  0.00    +0.008 A 
ATOM     12  C   UNL     1      15.962 -21.609   4.255  1.00  0.00    +0.008 A 
ATOM     13  C   UNL     1      15.647 -19.088   3.104  1.00  0.00    +0.022 A 
ATOM     14  C   UNL     1      15.102 -20.678   4.845  1.00  0.00    +0.022 A 
ATOM     15  C   UNL     1      14.943 -19.423   4.261  1.00  0.00    +0.082 A 
BRANCH  15  16
ATOM     16  S   UNL     1      13.880 -18.231   5.016  1.00  0.00    +0.238 S 
ATOM     17  O   UNL     1      13.592 -17.181   4.066  1.00  0.00    -0.207 OA
ATOM     18  O   UNL     1      12.841 -18.915   5.748  1.00  0.00    -0.207 OA
BRANCH  16  19
ATOM     19  N   UNL     1      14.887 -17.545   6.170  1.00  0.00    -0.225 NA
ATOM     20  H   UNL     1      14.631 -16.570   6.324  1.00  0.00    +0.137 HD
ATOM     21  H   UNL     1      14.887 -18.115   7.016  1.00  0.00    +0.137 HD
ENDBRANCH  16  19
ENDBRANCH  15  16
ENDBRANCH   2  10
BRANCH   6  22
ATOM     22  C   UNL     1      19.401 -21.553  -0.764  1.00  0.00    +0.211 C 
BRANCH  22  23
ATOM     23  C   UNL     1      19.857 -22.823  -1.475  1.00  0.00    +0.182 C 
ATOM     24  O   UNL     1      20.025 -23.892  -0.887  1.00  0.00    -0.292 OA
BRANCH  23  25
ATOM     25  C   UNL     1      20.113 -22.759  -2.947  1.00  0.00    +0.019 A 
ATOM     26  C   UNL     1      19.760 -21.588  -3.633  1.00  0.00    +0.012 A 
ATOM     27  C   UNL     1      20.684 -23.820  -3.660  1.00  0.00    +0.012 A 
ATOM     28  C   UNL     1      19.978 -21.475  -5.009  1.00  0.00    +0.014 A 
ATOM     29  C   UNL     1      20.902 -23.704  -5.038  1.00  0.00    +0.014 A 
ATOM     30  C   UNL     1      20.559 -22.529  -5.725  1.00  0.00    +0.056 A 
BRANCH  30  31
ATOM     31  C   UNL     1      20.776 -22.421  -7.217  1.00  0.00    +0.416 C 
ATOM     32  F   UNL     1      20.327 -21.244  -7.734  1.00  0.00    -0.166 F 
ATOM     33  F   UNL     1      22.092 -22.499  -7.553  1.00  0.00    -0.166 F 
ATOM     34  F   UNL     1      20.148 -23.401  -7.923  1.00  0.00    -0.166 F 
ENDBRANCH  30  31
ENDBRANCH  23  25
ENDBRANCH  22  23
ENDBRANCH   6  22
TORSDOF 7
ENDMDL
MODEL 7
REMARK VINA RESULT:    -8.446      5.521      8.439
REMARK INTER + INTRA:         -12.990
REMARK INTER:                 -12.355
REMARK INTRA:                  -0.636
REMARK UNBOUND:                -1.335
REMARK SMILES CC1(c2ccc(S(N)(=O)=O)cc2)NC(=O)N(CC(=O)c2ccc(C(F)(F)F)cc2)C1=O
REMARK SMILES IDX 1 1 2 2 13 3 14 4 15 5 16 6 30 7 31 8 3 10 4 11 12 12 5 13
REMARK SMILES IDX 11 14 6 15 7 16 9 17 10 18 8 19 17 22 18 23 19 24 20 25
REMARK SMILES IDX 21 26 29 27 22 28 28 29 23 30 24 31 25 32 26 33 27 34
REMARK H PARENT 13 9 8 20 8 21
ROOT
ATOM      1  C   UNL     1      17.613 -18.639  -0.907  1.00  0.00    +0.051 C 
ATOM      2  C   UNL     1      17.061 -19.889  -0.213  1.00  0.00    +0.144 C 
ATOM      3  N   UNL     1      16.248 -20.631  -1.157  1.00  0.00    -0.319 N 
ATOM      4  C   UNL     1      16.739 -21.890  -1.403  1.00  0.00    +0.325 C 
ATOM      5  O   UNL     1      16.195 -22.703  -2.132  1.00  0.00    -0.248 OA
ATOM      6  N   UNL     1      17.905 -22.043  -0.728  1.00  0.00    -0.254 N 
ATOM      7  C   UNL     1      18.197 -20.920  -0.005  1.00  0.00    +0.261 C 
ATOM      8  O   UNL     1      19.203 -20.754   0.676  1.00  0.00    -0.271 OA
ATOM      9  H   UNL     1      15.365 -20.327  -1.541  1.00  0.00    +0.166 HD
ENDROOT
BRANCH   2  10
ATOM     10  C   UNL     1      16.336 -19.581   1.098  1.00  0.00    -0.013 A 
ATOM     11  C   UNL     1      16.574 -20.314   2.276  1.00  0.00    +0.008 A 
ATOM     12  C   UNL     1      15.413 -18.518   1.160  1.00  0.00    +0.008 A 
ATOM     13  C   UNL     1      15.903 -20.011   3.465  1.00  0.00    +0.022 A 
ATOM     14  C   UNL     1      14.739 -18.208   2.345  1.00  0.00    +0.022 A 
ATOM     15  C   UNL     1      14.994 -18.953   3.495  1.00  0.00    +0.082 A 
BRANCH  15  16
ATOM     16  S   UNL     1      14.124 -18.587   4.989  1.00  0.00    +0.238 S 
ATOM     17  O   UNL     1      13.148 -17.554   4.729  1.00  0.00    -0.207 OA
ATOM     18  O   UNL     1      13.782 -19.821   5.655  1.00  0.00    -0.207 OA
BRANCH  16  19
ATOM     19  N   UNL     1      15.319 -17.869   5.922  1.00  0.00    -0.225 NA
ATOM     20  H   UNL     1      15.801 -17.150   5.382  1.00  0.00    +0.137 HD
ATOM     21  H   UNL     1      14.922 -17.535   6.800  1.00  0.00    +0.137 HD
ENDBRANCH  16  19
ENDBRANCH  15  16
ENDBRANCH   2  10
BRANCH   6  22
ATOM     22  C   UNL     1      18.674 -23.266  -0.696  1.00  0.00    +0.211 C 
BRANCH  22  23
ATOM     23  C   UNL     1      20.062 -23.006  -1.272  1.00  0.00    +0.182 C 
ATOM     24  O   UNL     1      21.060 -22.858  -0.565  1.00  0.00    -0.292 OA
BRANCH  23  25
ATOM     25  C   UNL     1      20.210 -22.923  -2.758  1.00  0.00    +0.019 A 
ATOM     26  C   UNL     1      19.908 -21.708  -3.390  1.00  0.00    +0.012 A 
ATOM     27  C   UNL     1      20.631 -24.009  -3.535  1.00  0.00    +0.012 A 
ATOM     28  C   UNL     1      20.029 -21.577  -4.776  1.00  0.00    +0.014 A 
ATOM     29  C   UNL     1      20.752 -23.875  -4.924  1.00  0.00    +0.014 A 
ATOM     30  C   UNL     1      20.460 -22.657  -5.557  1.00  0.00    +0.056 A 
BRANCH  30  31
ATOM     31  C   UNL     1      20.570 -22.526  -7.059  1.00  0.00    +0.416 C 
ATOM     32  F   UNL     1      20.186 -21.302  -7.515  1.00  0.00    -0.166 F 
ATOM     33  F   UNL     1      21.846 -22.705  -7.499  1.00  0.00    -0.166 F 
ATOM     34  F   UNL     1      19.809 -23.431  -7.733  1.00  0.00    -0.166 F 
ENDBRANCH  30  31
ENDBRANCH  23  25
ENDBRANCH  22  23
ENDBRANCH   6  22
TORSDOF 7
ENDMDL
MODEL 8
REMARK VINA RESULT:    -8.428      3.669      6.324
REMARK INTER + INTRA:         -12.966
REMARK INTER:                 -10.849
REMARK INTRA:                  -2.116
REMARK UNBOUND:                -1.335
REMARK SMILES CC1(c2ccc(S(N)(=O)=O)cc2)NC(=O)N(CC(=O)c2ccc(C(F)(F)F)cc2)C1=O
REMARK SMILES IDX 1 1 2 2 13 3 14 4 15 5 16 6 30 7 31 8 3 10 4 11 12 12 5 13
REMARK SMILES IDX 11 14 6 15 7 16 9 17 10 18 8 19 17 22 18 23 19 24 20 25
REMARK SMILES IDX 21 26 29 27 22 28 28 29 23 30 24 31 25 32 26 33 27 34
REMARK H PARENT 13 9 8 20 8 21
ROOT
ATOM      1  C   UNL     1      20.287 -24.384   4.298  1.00  0.00    +0.051 C 
ATOM      2  C   UNL     1      19.926 -23.484   3.112  1.00  0.00    +0.144 C 
ATOM      3  N   UNL     1      21.125 -22.817   2.645  1.00  0.00    -0.319 N 
ATOM      4  C   UNL     1      21.442 -23.141   1.349  1.00  0.00    +0.325 C 
ATOM      5  O   UNL     1      22.385 -22.667   0.738  1.00  0.00    -0.248 OA
ATOM      6  N   UNL     1      20.557 -24.067   0.903  1.00  0.00    -0.254 N 
ATOM      7  C   UNL     1      19.628 -24.353   1.864  1.00  0.00    +0.261 C 
ATOM      8  O   UNL     1      18.725 -25.176   1.759  1.00  0.00    -0.271 OA
ATOM      9  H   UNL     1      21.644 -22.115   3.153  1.00  0.00    +0.166 HD
ENDROOT
BRANCH   2  10
ATOM     10  C   UNL     1      18.776 -22.522   3.412  1.00  0.00    -0.013 A 
ATOM     11  C   UNL     1      18.278 -21.624   2.448  1.00  0.00    +0.008 A 
ATOM     12  C   UNL     1      18.161 -22.533   4.679  1.00  0.00    +0.008 A 
ATOM     13  C   UNL     1      17.221 -20.757   2.745  1.00  0.00    +0.022 A 
ATOM     14  C   UNL     1      17.104 -21.670   4.983  1.00  0.00    +0.022 A 
ATOM     15  C   UNL     1      16.634 -20.790   4.009  1.00  0.00    +0.082 A 
BRANCH  15  16
ATOM     16  S   UNL     1      15.318 -19.676   4.394  1.00  0.00    +0.238 S 
ATOM     17  O   UNL     1      15.003 -18.890   3.223  1.00  0.00    -0.207 OA
ATOM     18  O   UNL     1      14.305 -20.377   5.146  1.00  0.00    -0.207 OA
BRANCH  16  19
ATOM     19  N   UNL     1      16.054 -18.623   5.473  1.00  0.00    -0.225 NA
ATOM     20  H   UNL     1      16.851 -18.166   5.028  1.00  0.00    +0.137 HD
ATOM     21  H   UNL     1      15.364 -17.977   5.856  1.00  0.00    +0.137 HD
ENDBRANCH  16  19
ENDBRANCH  15  16
ENDBRANCH   2  10
BRANCH   6  22
ATOM     22  C   UNL     1      20.539 -24.596  -0.442  1.00  0.00    +0.211 C 
BRANCH  22  23
ATOM     23  C   UNL     1      20.347 -23.452  -1.433  1.00  0.00    +0.182 C 
ATOM     24  O   UNL     1      21.133 -23.229  -2.354  1.00  0.00    -0.292 OA
BRANCH  23  25
ATOM     25  C   UNL     1      19.153 -22.566  -1.270  1.00  0.00    +0.019 A 
ATOM     26  C   UNL     1      19.352 -21.178  -1.257  1.00  0.00    +0.012 A 
ATOM     27  C   UNL     1      17.854 -23.069  -1.128  1.00  0.00    +0.012 A 
ATOM     28  C   UNL     1      18.270 -20.305  -1.107  1.00  0.00    +0.014 A 
ATOM     29  C   UNL     1      16.772 -22.193  -0.979  1.00  0.00    +0.014 A 
ATOM     30  C   UNL     1      16.968 -20.803  -0.975  1.00  0.00    +0.056 A 
BRANCH  30  31
ATOM     31  C   UNL     1      15.799 -19.864  -0.791  1.00  0.00    +0.416 C 
ATOM     32  F   UNL     1      14.643 -20.342  -1.331  1.00  0.00    -0.166 F 
ATOM     33  F   UNL     1      15.529 -19.629   0.523  1.00  0.00    -0.166 F 
ATOM     34  F   UNL     1      15.997 -18.642  -1.358  1.00  0.00    -0.166 F 
ENDBRANCH  30  31
ENDBRANCH  23  25
ENDBRANCH  22  23
ENDBRANCH   6  22
TORSDOF 7
ENDMDL
MODEL 9
REMARK VINA RESULT:    -8.292      2.949      4.132
REMARK INTER + INTRA:         -12.777
REMARK INTER:                 -12.020
REMARK INTRA:                  -0.757
REMARK UNBOUND:                -1.335
REMARK SMILES CC1(c2ccc(S(N)(=O)=O)cc2)NC(=O)N(CC(=O)c2ccc(C(F)(F)F)cc2)C1=O
REMARK SMILES IDX 1 1 2 2 13 3 14 4 15 5 16 6 30 7 31 8 3 10 4 11 12 12 5 13
REMARK SMILES IDX 11 14 6 15 7 16 9 17 10 18 8 19 17 22 18 23 19 24 20 25
REMARK SMILES IDX 21 26 29 27 22 28 28 29 23 30 24 31 25 32 26 33 27 34
REMARK H PARENT 13 9 8 20 8 21
ROOT
ATOM      1  C   UNL     1      20.658 -24.489   0.243  1.00  0.00    +0.051 C 
ATOM      2  C   UNL     1      20.418 -23.435   1.328  1.00  0.00    +0.144 C 
ATOM      3  N   UNL     1      19.824 -22.260   0.720  1.00  0.00    -0.319 N 
ATOM      4  C   UNL     1      18.573 -21.982   1.216  1.00  0.00    +0.325 C 
ATOM      5  O   UNL     1      17.905 -21.019   0.879  1.00  0.00    -0.248 OA
ATOM      6  N   UNL     1      18.228 -22.953   2.097  1.00  0.00    -0.254 N 
ATOM      7  C   UNL     1      19.236 -23.868   2.230  1.00  0.00    +0.261 C 
ATOM      8  O   UNL     1      19.196 -24.873   2.931  1.00  0.00    -0.271 OA
ATOM      9  H   UNL     1      20.282 -21.637   0.071  1.00  0.00    +0.166 HD
ENDROOT
BRANCH   2  10
ATOM     10  C   UNL     1      21.667 -23.122   2.153  1.00  0.00    -0.013 A 
ATOM     11  C   UNL     1      21.892 -23.696   3.419  1.00  0.00    +0.008 A 
ATOM     12  C   UNL     1      22.651 -22.254   1.641  1.00  0.00    +0.008 A 
ATOM     13  C   UNL     1      23.044 -23.399   4.153  1.00  0.00    +0.022 A 
ATOM     14  C   UNL     1      23.806 -21.953   2.368  1.00  0.00    +0.022 A 
ATOM     15  C   UNL     1      24.000 -22.534   3.620  1.00  0.00    +0.082 A 
BRANCH  15  16
ATOM     16  S   UNL     1      25.443 -22.136   4.559  1.00  0.00    +0.238 S 
ATOM     17  O   UNL     1      25.963 -23.340   5.165  1.00  0.00    -0.207 OA
ATOM     18  O   UNL     1      26.275 -21.237   3.794  1.00  0.00    -0.207 OA
BRANCH  16  19
ATOM     19  N   UNL     1      24.804 -21.225   5.814  1.00  0.00    -0.225 NA
ATOM     20  H   UNL     1      25.261 -20.314   5.853  1.00  0.00    +0.137 HD
ATOM     21  H   UNL     1      23.789 -21.178   5.729  1.00  0.00    +0.137 HD
ENDBRANCH  16  19
ENDBRANCH  15  16
ENDBRANCH   2  10
BRANCH   6  22
ATOM     22  C   UNL     1      17.006 -22.958   2.868  1.00  0.00    +0.211 C 
BRANCH  22  23
ATOM     23  C   UNL     1      17.161 -22.028   4.068  1.00  0.00    +0.182 C 
ATOM     24  O   UNL     1      18.150 -22.045   4.801  1.00  0.00    -0.292 OA
BRANCH  23  25
ATOM     25  C   UNL     1      16.058 -21.062   4.363  1.00  0.00    +0.019 A 
ATOM     26  C   UNL     1      15.150 -21.381   5.383  1.00  0.00    +0.012 A 
ATOM     27  C   UNL     1      15.899 -19.862   3.660  1.00  0.00    +0.012 A 
ATOM     28  C   UNL     1      14.101 -20.513   5.700  1.00  0.00    +0.014 A 
ATOM     29  C   UNL     1      14.848 -18.994   3.979  1.00  0.00    +0.014 A 
ATOM     30  C   UNL     1      13.943 -19.306   5.006  1.00  0.00    +0.056 A 
BRANCH  30  31
ATOM     31  C   UNL     1      12.797 -18.375   5.330  1.00  0.00    +0.416 C 
ATOM     32  F   UNL     1      11.598 -19.016   5.401  1.00  0.00    -0.166 F 
ATOM     33  F   UNL     1      12.962 -17.754   6.529  1.00  0.00    -0.166 F 
ATOM     34  F   UNL     1      12.636 -17.384   4.411  1.00  0.00    -0.166 F 
ENDBRANCH  30  31
ENDBRANCH  23  25
ENDBRANCH  22  23
ENDBRANCH   6  22
TORSDOF 7
ENDMDL
