MODEL 1
REMARK VINA RESULT:    -8.438      0.000      0.000
REMARK INTER + INTRA:         -12.354
REMARK INTER:                 -11.151
REMARK INTRA:                  -1.204
REMARK UNBOUND:                -1.204
REMARK SMILES CC1(c2ccc(S(N)(=O)=O)cc2)NC(=O)N(CC(=O)C2CCCCC2)C1=O
REMARK SMILES IDX 1 1 2 2 13 3 14 4 15 5 16 6 26 7 27 8 3 10 4 11 12 12 5 13
REMARK SMILES IDX 11 14 6 15 7 16 9 17 10 18 8 19 17 22 18 23 19 24 20 25
REMARK SMILES IDX 21 26 25 27 22 28 24 29 23 30
REMARK H PARENT 13 9 8 20 8 21
ROOT
ATOM      1  C   UNL     1      18.409 -23.836   4.375  1.00  0.00    +0.051 C 
ATOM      2  C   UNL     1      17.658 -23.088   3.268  1.00  0.00    +0.144 C 
ATOM      3  N   UNL     1      16.878 -24.034   2.491  1.00  0.00    -0.319 N 
ATOM      4  C   UNL     1      17.400 -24.242   1.238  1.00  0.00    +0.325 C 
ATOM      5  O   UNL     1      16.990 -25.083   0.456  1.00  0.00    -0.248 OA
ATOM      6  N   UNL     1      18.424 -23.373   1.042  1.00  0.00    -0.254 N 
ATOM      7  C   UNL     1      18.664 -22.646   2.175  1.00  0.00    +0.261 C 
ATOM      8  O   UNL     1      19.546 -21.806   2.303  1.00  0.00    -0.271 OA
ATOM      9  H   UNL     1      16.201 -24.680   2.874  1.00  0.00    +0.166 HD
ENDROOT
BRANCH   2  10
ATOM     10  C   UNL     1      16.827 -21.922   3.799  1.00  0.00    -0.013 A 
ATOM     11  C   UNL     1      16.510 -20.803   3.006  1.00  0.00    +0.008 A 
ATOM     12  C   UNL     1      16.342 -21.949   5.123  1.00  0.00    +0.008 A 
ATOM     13  C   UNL     1      15.739 -19.751   3.512  1.00  0.00    +0.022 A 
ATOM     14  C   UNL     1      15.571 -20.903   5.635  1.00  0.00    +0.022 A 
ATOM     15  C   UNL     1      15.282 -19.805   4.828  1.00  0.00    +0.082 A 
BRANCH  15  16
ATOM     16  S   UNL     1      14.300 -18.483   5.482  1.00  0.00    +0.238 S 
ATOM     17  O   UNL     1      15.042 -17.846   6.544  1.00  0.00    -0.207 OA
ATOM     18  O   UNL     1      12.945 -18.955   5.654  1.00  0.00    -0.207 OA
BRANCH  16  19
ATOM     19  N   UNL     1      14.245 -17.424   4.174  1.00  0.00    -0.225 NA
ATOM     20  H   UNL     1      15.158 -17.251   3.756  1.00  0.00    +0.137 HD
ATOM     21  H   UNL     1      13.572 -17.777   3.492  1.00  0.00    +0.137 HD
ENDBRANCH  16  19
ENDBRANCH  15  16
ENDBRANCH   2  10
BRANCH   6  22
ATOM     22  C   UNL     1      19.266 -23.366  -0.129  1.00  0.00    +0.206 C 
BRANCH  22  23
ATOM     23  C   UNL     1      18.645 -22.457  -1.190  1.00  0.00    +0.155 C 
ATOM     24  O   UNL     1      18.895 -22.581  -2.391  1.00  0.00    -0.297 OA
BRANCH  23  25
ATOM     25  C   UNL     1      17.710 -21.367  -0.669  1.00  0.00    +0.058 C 
ATOM     26  C   UNL     1      16.261 -21.679  -1.075  1.00  0.00    +0.011 C 
ATOM     27  C   UNL     1      18.143 -19.979  -1.148  1.00  0.00    +0.011 C 
ATOM     28  C   UNL     1      15.408 -20.431  -1.316  1.00  0.00    +0.001 C 
ATOM     29  C   UNL     1      17.257 -18.874  -0.570  1.00  0.00    +0.001 C 
ATOM     30  C   UNL     1      15.800 -19.297  -0.380  1.00  0.00    +0.000 C 
ENDBRANCH  23  25
ENDBRANCH  22  23
ENDBRANCH   6  22
TORSDOF 6
ENDMDL
MODEL 2
REMARK VINA RESULT:    -7.683      3.436      7.292
REMARK INTER + INTRA:         -11.356
REMARK INTER:                 -10.561
REMARK INTRA:                  -0.796
REMARK UNBOUND:                -1.204
REMARK SMILES CC1(c2ccc(S(N)(=O)=O)cc2)NC(=O)N(CC(=O)C2CCCCC2)C1=O
REMARK SMILES IDX 1 1 2 2 13 3 14 4 15 5 16 6 26 7 27 8 3 10 4 11 12 12 5 13
REMARK SMILES IDX 11 14 6 15 7 16 9 17 10 18 8 19 17 22 18 23 19 24 20 25
REMARK SMILES IDX 21 26 25 27 22 28 24 29 23 30
REMARK H PARENT 13 9 8 20 8 21
ROOT
ATOM      1  C   UNL     1      15.731 -23.645   0.333  1.00  0.00    +0.051 C 
ATOM      2  C   UNL     1      17.114 -23.109   0.722  1.00  0.00    +0.144 C 
ATOM      3  N   UNL     1      17.739 -24.025   1.658  1.00  0.00    -0.319 N 
ATOM      4  C   UNL     1      17.792 -23.520   2.933  1.00  0.00    +0.325 C 
ATOM      5  O   UNL     1      18.158 -24.156   3.907  1.00  0.00    -0.248 OA
ATOM      6  N   UNL     1      17.370 -22.231   2.909  1.00  0.00    -0.254 N 
ATOM      7  C   UNL     1      16.943 -21.885   1.657  1.00  0.00    +0.261 C 
ATOM      8  O   UNL     1      16.481 -20.795   1.343  1.00  0.00    -0.271 OA
ATOM      9  H   UNL     1      17.880 -25.013   1.495  1.00  0.00    +0.166 HD
ENDROOT
BRANCH   2  10
ATOM     10  C   UNL     1      17.991 -22.799  -0.489  1.00  0.00    -0.013 A 
ATOM     11  C   UNL     1      17.449 -22.544  -1.763  1.00  0.00    +0.008 A 
ATOM     12  C   UNL     1      19.393 -22.753  -0.349  1.00  0.00    +0.008 A 
ATOM     13  C   UNL     1      18.273 -22.253  -2.856  1.00  0.00    +0.022 A 
ATOM     14  C   UNL     1      20.222 -22.462  -1.435  1.00  0.00    +0.022 A 
ATOM     15  C   UNL     1      19.656 -22.223  -2.685  1.00  0.00    +0.082 A 
BRANCH  15  16
ATOM     16  S   UNL     1      20.713 -21.850  -4.058  1.00  0.00    +0.238 S 
ATOM     17  O   UNL     1      21.106 -23.092  -4.681  1.00  0.00    -0.207 OA
ATOM     18  O   UNL     1      21.670 -20.849  -3.646  1.00  0.00    -0.207 OA
BRANCH  16  19
ATOM     19  N   UNL     1      19.650 -21.058  -5.096  1.00  0.00    -0.225 NA
ATOM     20  H   UNL     1      18.719 -20.929  -4.701  1.00  0.00    +0.137 HD
ATOM     21  H   UNL     1      20.069 -20.172  -5.384  1.00  0.00    +0.137 HD
ENDBRANCH  16  19
ENDBRANCH  15  16
ENDBRANCH   2  10
BRANCH   6  22
ATOM     22  C   UNL     1      17.205 -21.412   4.085  1.00  0.00    +0.206 C 
BRANCH  22  23
ATOM     23  C   UNL     1      15.718 -21.318   4.429  1.00  0.00    +0.155 C 
ATOM     24  O   UNL     1      14.990 -22.311   4.485  1.00  0.00    -0.297 OA
BRANCH  23  25
ATOM     25  C   UNL     1      15.181 -19.909   4.678  1.00  0.00    +0.058 C 
ATOM     26  C   UNL     1      16.118 -19.149   5.629  1.00  0.00    +0.011 C 
ATOM     27  C   UNL     1      13.745 -19.941   5.208  1.00  0.00    +0.011 C 
ATOM     28  C   UNL     1      15.397 -18.140   6.526  1.00  0.00    +0.001 C 
ATOM     29  C   UNL     1      13.172 -18.534   5.388  1.00  0.00    +0.001 C 
ATOM     30  C   UNL     1      14.217 -17.499   5.810  1.00  0.00    +0.000 C 
ENDBRANCH  23  25
ENDBRANCH  22  23
ENDBRANCH   6  22
TORSDOF 6
ENDMDL
MODEL 3
REMARK VINA RESULT:    -7.624      1.713      2.579
REMARK INTER + INTRA:         -11.278
REMARK INTER:                 -10.531
REMARK INTRA:                  -0.747
REMARK UNBOUND:                -1.204
REMARK SMILES CC1(c2ccc(S(N)(=O)=O)cc2)NC(=O)N(CC(=O)C2CCCCC2)C1=O
REMARK SMILES IDX 1 1 2 2 13 3 14 4 15 5 16 6 26 7 27 8 3 10 4 11 12 12 5 13
REMARK SMILES IDX 11 14 6 15 7 16 9 17 10 18 8 19 17 22 18 23 19 24 20 25
REMARK SMILES IDX 21 26 25 27 22 28 24 29 23 30
REMARK H PARENT 13 9 8 20 8 21
ROOT
ATOM      1  C   UNL     1      17.847 -24.043   3.972  1.00  0.00    +0.051 C 
ATOM      2  C   UNL     1      17.282 -23.058   2.942  1.00  0.00    +0.144 C 
ATOM      3  N   UNL     1      16.456 -23.778   1.990  1.00  0.00    -0.319 N 
ATOM      4  C   UNL     1      17.045 -23.881   0.755  1.00  0.00    +0.325 C 
ATOM      5  O   UNL     1      16.597 -24.546  -0.164  1.00  0.00    -0.248 OA
ATOM      6  N   UNL     1      18.180 -23.137   0.749  1.00  0.00    -0.254 N 
ATOM      7  C   UNL     1      18.418 -22.610   1.988  1.00  0.00    +0.261 C 
ATOM      8  O   UNL     1      19.384 -21.920   2.289  1.00  0.00    -0.271 OA
ATOM      9  H   UNL     1      15.677 -24.374   2.234  1.00  0.00    +0.166 HD
ENDROOT
BRANCH   2  10
ATOM     10  C   UNL     1      16.562 -21.876   3.585  1.00  0.00    -0.013 A 
ATOM     11  C   UNL     1      16.419 -20.637   2.931  1.00  0.00    +0.008 A 
ATOM     12  C   UNL     1      16.006 -22.007   4.875  1.00  0.00    +0.008 A 
ATOM     13  C   UNL     1      15.746 -19.571   3.537  1.00  0.00    +0.022 A 
ATOM     14  C   UNL     1      15.333 -20.947   5.486  1.00  0.00    +0.022 A 
ATOM     15  C   UNL     1      15.215 -19.731   4.817  1.00  0.00    +0.082 A 
BRANCH  15  16
ATOM     16  S   UNL     1      14.356 -18.391   5.596  1.00  0.00    +0.238 S 
ATOM     17  O   UNL     1      15.210 -17.836   6.619  1.00  0.00    -0.207 OA
ATOM     18  O   UNL     1      12.996 -18.804   5.856  1.00  0.00    -0.207 OA
BRANCH  16  19
ATOM     19  N   UNL     1      14.256 -17.277   4.337  1.00  0.00    -0.225 NA
ATOM     20  H   UNL     1      15.164 -17.013   3.958  1.00  0.00    +0.137 HD
ATOM     21  H   UNL     1      13.634 -17.648   3.617  1.00  0.00    +0.137 HD
ENDBRANCH  16  19
ENDBRANCH  15  16
ENDBRANCH   2  10
BRANCH   6  22
ATOM     22  C   UNL     1      19.105 -23.084  -0.356  1.00  0.00    +0.206 C 
BRANCH  22  23
ATOM     23  C   UNL     1      18.779 -21.870  -1.228  1.00  0.00    +0.155 C 
ATOM     24  O   UNL     1      17.720 -21.248  -1.121  1.00  0.00    -0.297 OA
BRANCH  23  25
ATOM     25  C   UNL     1      19.839 -21.488  -2.259  1.00  0.00    +0.058 C 
ATOM     26  C   UNL     1      19.234 -21.518  -3.671  1.00  0.00    +0.011 C 
ATOM     27  C   UNL     1      21.075 -22.387  -2.156  1.00  0.00    +0.011 C 
ATOM     28  C   UNL     1      20.235 -21.914  -4.760  1.00  0.00    +0.001 C 
ATOM     29  C   UNL     1      22.172 -21.963  -3.133  1.00  0.00    +0.001 C 
ATOM     30  C   UNL     1      21.633 -21.399  -4.448  1.00  0.00    +0.000 C 
ENDBRANCH  23  25
ENDBRANCH  22  23
ENDBRANCH   6  22
TORSDOF 6
ENDMDL
MODEL 4
REMARK VINA RESULT:    -7.541      3.222      4.431
REMARK INTER + INTRA:         -11.169
REMARK INTER:                 -10.278
REMARK INTRA:                  -0.890
REMARK UNBOUND:                -1.204
REMARK SMILES CC1(c2ccc(S(N)(=O)=O)cc2)NC(=O)N(CC(=O)C2CCCCC2)C1=O
REMARK SMILES IDX 1 1 2 2 13 3 14 4 15 5 16 6 26 7 27 8 3 10 4 11 12 12 5 13
REMARK SMILES IDX 11 14 6 15 7 16 9 17 10 18 8 19 17 22 18 23 19 24 20 25
REMARK SMILES IDX 21 26 25 27 22 28 24 29 23 30
REMARK H PARENT 13 9 8 20 8 21
ROOT
ATOM      1  C   UNL     1      16.466 -23.477  -0.601  1.00  0.00    +0.051 C 
ATOM      2  C   UNL     1      17.167 -22.173  -0.204  1.00  0.00    +0.144 C 
ATOM      3  N   UNL     1      16.888 -21.154  -1.198  1.00  0.00    -0.319 N 
ATOM      4  C   UNL     1      17.982 -20.862  -1.974  1.00  0.00    +0.325 C 
ATOM      5  O   UNL     1      17.955 -20.132  -2.950  1.00  0.00    -0.248 OA
ATOM      6  N   UNL     1      19.059 -21.518  -1.473  1.00  0.00    -0.254 N 
ATOM      7  C   UNL     1      18.692 -22.323  -0.430  1.00  0.00    +0.261 C 
ATOM      8  O   UNL     1      19.448 -23.056   0.198  1.00  0.00    -0.271 OA
ATOM      9  H   UNL     1      15.964 -20.872  -1.495  1.00  0.00    +0.166 HD
ENDROOT
BRANCH   2  10
ATOM     10  C   UNL     1      16.831 -21.730   1.218  1.00  0.00    -0.013 A 
ATOM     11  C   UNL     1      16.556 -22.651   2.247  1.00  0.00    +0.008 A 
ATOM     12  C   UNL     1      16.795 -20.356   1.537  1.00  0.00    +0.008 A 
ATOM     13  C   UNL     1      16.259 -22.220   3.545  1.00  0.00    +0.022 A 
ATOM     14  C   UNL     1      16.501 -19.919   2.831  1.00  0.00    +0.022 A 
ATOM     15  C   UNL     1      16.225 -20.854   3.825  1.00  0.00    +0.082 A 
BRANCH  15  16
ATOM     16  S   UNL     1      15.856 -20.294   5.466  1.00  0.00    +0.238 S 
ATOM     17  O   UNL     1      17.006 -20.540   6.301  1.00  0.00    -0.207 OA
ATOM     18  O   UNL     1      14.528 -20.741   5.818  1.00  0.00    -0.207 OA
BRANCH  16  19
ATOM     19  N   UNL     1      15.725 -18.631   5.232  1.00  0.00    -0.225 NA
ATOM     20  H   UNL     1      16.614 -18.182   5.015  1.00  0.00    +0.137 HD
ATOM     21  H   UNL     1      15.021 -18.453   4.514  1.00  0.00    +0.137 HD
ENDBRANCH  16  19
ENDBRANCH  15  16
ENDBRANCH   2  10
BRANCH   6  22
ATOM     22  C   UNL     1      20.363 -21.519  -2.089  1.00  0.00    +0.206 C 
BRANCH  22  23
ATOM     23  C   UNL     1      20.390 -22.556  -3.212  1.00  0.00    +0.155 C 
ATOM     24  O   UNL     1      20.433 -23.768  -2.989  1.00  0.00    -0.297 OA
BRANCH  23  25
ATOM     25  C   UNL     1      20.382 -21.998  -4.634  1.00  0.00    +0.058 C 
ATOM     26  C   UNL     1      19.965 -23.094  -5.627  1.00  0.00    +0.011 C 
ATOM     27  C   UNL     1      21.736 -21.387  -5.005  1.00  0.00    +0.011 C 
ATOM     28  C   UNL     1      20.618 -22.955  -7.005  1.00  0.00    +0.001 C 
ATOM     29  C   UNL     1      21.715 -20.758  -6.399  1.00  0.00    +0.001 C 
ATOM     30  C   UNL     1      20.810 -21.495  -7.388  1.00  0.00    +0.000 C 
ENDBRANCH  23  25
ENDBRANCH  22  23
ENDBRANCH   6  22
TORSDOF 6
ENDMDL
MODEL 5
REMARK VINA RESULT:    -7.409      3.725      7.719
REMARK INTER + INTRA:         -10.995
REMARK INTER:                 -10.245
REMARK INTRA:                  -0.750
REMARK UNBOUND:                -1.204
REMARK SMILES CC1(c2ccc(S(N)(=O)=O)cc2)NC(=O)N(CC(=O)C2CCCCC2)C1=O
REMARK SMILES IDX 1 1 2 2 13 3 14 4 15 5 16 6 26 7 27 8 3 10 4 11 12 12 5 13
REMARK SMILES IDX 11 14 6 15 7 16 9 17 10 18 8 19 17 22 18 23 19 24 20 25
REMARK SMILES IDX 21 26 25 27 22 28 24 29 23 30
REMARK H PARENT 13 9 8 20 8 21
ROOT
ATOM      1  C   UNL     1      15.807 -21.548  -1.455  1.00  0.00    +0.051 C 
ATOM      2  C   UNL     1      17.073 -21.589  -0.592  1.00  0.00    +0.144 C 
ATOM      3  N   UNL     1      16.831 -22.412   0.579  1.00  0.00    -0.319 N 
ATOM      4  C   UNL     1      16.734 -21.672   1.731  1.00  0.00    +0.325 C 
ATOM      5  O   UNL     1      16.410 -22.130   2.814  1.00  0.00    -0.248 OA
ATOM      6  N   UNL     1      17.046 -20.382   1.448  1.00  0.00    -0.254 N 
ATOM      7  C   UNL     1      17.261 -20.220   0.108  1.00  0.00    +0.261 C 
ATOM      8  O   UNL     1      17.531 -19.158  -0.442  1.00  0.00    -0.271 OA
ATOM      9  H   UNL     1      16.499 -23.367   0.557  1.00  0.00    +0.166 HD
ENDROOT
BRANCH   2  10
ATOM     10  C   UNL     1      18.311 -22.016  -1.377  1.00  0.00    -0.013 A 
ATOM     11  C   UNL     1      18.438 -21.789  -2.761  1.00  0.00    +0.008 A 
ATOM     12  C   UNL     1      19.380 -22.654  -0.714  1.00  0.00    +0.008 A 
ATOM     13  C   UNL     1      19.587 -22.181  -3.457  1.00  0.00    +0.022 A 
ATOM     14  C   UNL     1      20.530 -23.047  -1.402  1.00  0.00    +0.022 A 
ATOM     15  C   UNL     1      20.622 -22.816  -2.773  1.00  0.00    +0.082 A 
BRANCH  15  16
ATOM     16  S   UNL     1      22.086 -23.314  -3.640  1.00  0.00    +0.238 S 
ATOM     17  O   UNL     1      22.989 -23.927  -2.695  1.00  0.00    -0.207 OA
ATOM     18  O   UNL     1      22.489 -22.241  -4.518  1.00  0.00    -0.207 OA
BRANCH  16  19
ATOM     19  N   UNL     1      21.486 -24.521  -4.649  1.00  0.00    -0.225 NA
ATOM     20  H   UNL     1      21.336 -24.209  -5.608  1.00  0.00    +0.137 HD
ATOM     21  H   UNL     1      22.108 -25.330  -4.602  1.00  0.00    +0.137 HD
ENDBRANCH  16  19
ENDBRANCH  15  16
ENDBRANCH   2  10
BRANCH   6  22
ATOM     22  C   UNL     1      16.960 -19.302   2.401  1.00  0.00    +0.206 C 
BRANCH  22  23
ATOM     23  C   UNL     1      15.606 -18.607   2.254  1.00  0.00    +0.155 C 
ATOM     24  O   UNL     1      15.335 -17.891   1.288  1.00  0.00    -0.297 OA
BRANCH  23  25
ATOM     25  C   UNL     1      14.614 -18.835   3.392  1.00  0.00    +0.058 C 
ATOM     26  C   UNL     1      13.849 -17.537   3.692  1.00  0.00    +0.011 C 
ATOM     27  C   UNL     1      15.308 -19.381   4.643  1.00  0.00    +0.011 C 
ATOM     28  C   UNL     1      13.453 -17.382   5.162  1.00  0.00    +0.001 C 
ATOM     29  C   UNL     1      14.312 -19.684   5.763  1.00  0.00    +0.001 C 
ATOM     30  C   UNL     1      13.121 -18.725   5.796  1.00  0.00    +0.000 C 
ENDBRANCH  23  25
ENDBRANCH  22  23
ENDBRANCH   6  22
TORSDOF 6
ENDMDL
MODEL 6
REMARK VINA RESULT:    -7.387      2.506      5.062
REMARK INTER + INTRA:         -10.966
REMARK INTER:                  -9.915
REMARK INTRA:                  -1.052
REMARK UNBOUND:                -1.204
REMARK SMILES CC1(c2ccc(S(N)(=O)=O)cc2)NC(=O)N(CC(=O)C2CCCCC2)C1=O
REMARK SMILES IDX 1 1 2 2 13 3 14 4 15 5 16 6 26 7 27 8 3 10 4 11 12 12 5 13
REMARK SMILES IDX 11 14 6 15 7 16 9 17 10 18 8 19 17 22 18 23 19 24 20 25
REMARK SMILES IDX 21 26 25 27 22 28 24 29 23 30
REMARK H PARENT 13 9 8 20 8 21
ROOT
ATOM      1  C   UNL     1      17.227 -20.728  -0.448  1.00  0.00    +0.051 C 
ATOM      2  C   UNL     1      17.509 -20.999   1.034  1.00  0.00    +0.144 C 
ATOM      3  N   UNL     1      18.912 -20.749   1.311  1.00  0.00    -0.319 N 
ATOM      4  C   UNL     1      19.618 -21.906   1.532  1.00  0.00    +0.325 C 
ATOM      5  O   UNL     1      20.830 -21.954   1.660  1.00  0.00    -0.248 OA
ATOM      6  N   UNL     1      18.749 -22.947   1.573  1.00  0.00    -0.254 N 
ATOM      7  C   UNL     1      17.478 -22.527   1.290  1.00  0.00    +0.261 C 
ATOM      8  O   UNL     1      16.492 -23.250   1.227  1.00  0.00    -0.271 OA
ATOM      9  H   UNL     1      19.398 -19.887   1.108  1.00  0.00    +0.166 HD
ENDROOT
BRANCH   2  10
ATOM     10  C   UNL     1      16.571 -20.234   1.965  1.00  0.00    -0.013 A 
ATOM     11  C   UNL     1      15.831 -19.116   1.534  1.00  0.00    +0.008 A 
ATOM     12  C   UNL     1      16.417 -20.648   3.305  1.00  0.00    +0.008 A 
ATOM     13  C   UNL     1      14.971 -18.437   2.403  1.00  0.00    +0.022 A 
ATOM     14  C   UNL     1      15.559 -19.976   4.178  1.00  0.00    +0.022 A 
ATOM     15  C   UNL     1      14.847 -18.868   3.724  1.00  0.00    +0.082 A 
BRANCH  15  16
ATOM     16  S   UNL     1      13.757 -18.021   4.835  1.00  0.00    +0.238 S 
ATOM     17  O   UNL     1      12.915 -18.999   5.480  1.00  0.00    -0.207 OA
ATOM     18  O   UNL     1      13.226 -16.857   4.164  1.00  0.00    -0.207 OA
BRANCH  16  19
ATOM     19  N   UNL     1      14.839 -17.426   5.980  1.00  0.00    -0.225 NA
ATOM     20  H   UNL     1      14.433 -16.717   6.590  1.00  0.00    +0.137 HD
ATOM     21  H   UNL     1      15.224 -18.210   6.509  1.00  0.00    +0.137 HD
ENDBRANCH  16  19
ENDBRANCH  15  16
ENDBRANCH   2  10
BRANCH   6  22
ATOM     22  C   UNL     1      19.146 -24.328   1.696  1.00  0.00    +0.206 C 
BRANCH  22  23
ATOM     23  C   UNL     1      19.294 -24.679   3.177  1.00  0.00    +0.155 C 
ATOM     24  O   UNL     1      18.342 -24.649   3.960  1.00  0.00    -0.297 OA
BRANCH  23  25
ATOM     25  C   UNL     1      20.704 -25.049   3.636  1.00  0.00    +0.058 C 
ATOM     26  C   UNL     1      21.332 -23.877   4.405  1.00  0.00    +0.011 C 
ATOM     27  C   UNL     1      21.581 -25.486   2.459  1.00  0.00    +0.011 C 
ATOM     28  C   UNL     1      22.851 -23.780   4.245  1.00  0.00    +0.001 C 
ATOM     29  C   UNL     1      22.970 -25.931   2.918  1.00  0.00    +0.001 C 
ATOM     30  C   UNL     1      23.490 -25.157   4.131  1.00  0.00    +0.000 C 
ENDBRANCH  23  25
ENDBRANCH  22  23
ENDBRANCH   6  22
TORSDOF 6
ENDMDL
MODEL 7
REMARK VINA RESULT:    -7.366      2.390      4.849
REMARK INTER + INTRA:         -10.938
REMARK INTER:                 -10.064
REMARK INTRA:                  -0.874
REMARK UNBOUND:                -1.204
REMARK SMILES CC1(c2ccc(S(N)(=O)=O)cc2)NC(=O)N(CC(=O)C2CCCCC2)C1=O
REMARK SMILES IDX 1 1 2 2 13 3 14 4 15 5 16 6 26 7 27 8 3 10 4 11 12 12 5 13
REMARK SMILES IDX 11 14 6 15 7 16 9 17 10 18 8 19 17 22 18 23 19 24 20 25
REMARK SMILES IDX 21 26 25 27 22 28 24 29 23 30
REMARK H PARENT 13 9 8 20 8 21
ROOT
ATOM      1  C   UNL     1      17.633 -19.763  -0.614  1.00  0.00    +0.051 C 
ATOM      2  C   UNL     1      17.579 -20.593   0.673  1.00  0.00    +0.144 C 
ATOM      3  N   UNL     1      18.928 -20.810   1.162  1.00  0.00    -0.319 N 
ATOM      4  C   UNL     1      19.345 -22.108   0.996  1.00  0.00    +0.325 C 
ATOM      5  O   UNL     1      20.480 -22.495   1.216  1.00  0.00    -0.248 OA
ATOM      6  N   UNL     1      18.300 -22.849   0.550  1.00  0.00    -0.254 N 
ATOM      7  C   UNL     1      17.209 -22.057   0.322  1.00  0.00    +0.261 C 
ATOM      8  O   UNL     1      16.130 -22.445  -0.111  1.00  0.00    -0.271 OA
ATOM      9  H   UNL     1      19.599 -20.080   1.353  1.00  0.00    +0.166 HD
ENDROOT
BRANCH   2  10
ATOM     10  C   UNL     1      16.650 -19.994   1.726  1.00  0.00    -0.013 A 
ATOM     11  C   UNL     1      15.810 -18.897   1.450  1.00  0.00    +0.008 A 
ATOM     12  C   UNL     1      16.607 -20.546   3.023  1.00  0.00    +0.008 A 
ATOM     13  C   UNL     1      14.960 -18.372   2.429  1.00  0.00    +0.022 A 
ATOM     14  C   UNL     1      15.761 -20.026   4.005  1.00  0.00    +0.022 A 
ATOM     15  C   UNL     1      14.948 -18.936   3.704  1.00  0.00    +0.082 A 
BRANCH  15  16
ATOM     16  S   UNL     1      13.873 -18.284   4.953  1.00  0.00    +0.238 S 
ATOM     17  O   UNL     1      13.157 -19.382   5.556  1.00  0.00    -0.207 OA
ATOM     18  O   UNL     1      13.207 -17.116   4.425  1.00  0.00    -0.207 OA
BRANCH  16  19
ATOM     19  N   UNL     1      14.980 -17.700   6.080  1.00  0.00    -0.225 NA
ATOM     20  H   UNL     1      14.593 -16.984   6.694  1.00  0.00    +0.137 HD
ATOM     21  H   UNL     1      15.363 -18.488   6.605  1.00  0.00    +0.137 HD
ENDBRANCH  16  19
ENDBRANCH  15  16
ENDBRANCH   2  10
BRANCH   6  22
ATOM     22  C   UNL     1      18.395 -24.239   0.177  1.00  0.00    +0.206 C 
BRANCH  22  23
ATOM     23  C   UNL     1      18.063 -25.109   1.389  1.00  0.00    +0.155 C 
ATOM     24  O   UNL     1      17.544 -24.649   2.408  1.00  0.00    -0.297 OA
BRANCH  23  25
ATOM     25  C   UNL     1      18.436 -26.586   1.270  1.00  0.00    +0.058 C 
ATOM     26  C   UNL     1      19.532 -26.768   0.207  1.00  0.00    +0.011 C 
ATOM     27  C   UNL     1      17.210 -27.453   0.969  1.00  0.00    +0.011 C 
ATOM     28  C   UNL     1      19.451 -28.104  -0.535  1.00  0.00    +0.001 C 
ATOM     29  C   UNL     1      17.561 -28.941   0.923  1.00  0.00    +0.001 C 
ATOM     30  C   UNL     1      18.961 -29.221   0.375  1.00  0.00    +0.000 C 
ENDBRANCH  23  25
ENDBRANCH  22  23
ENDBRANCH   6  22
TORSDOF 6
ENDMDL
MODEL 8
REMARK VINA RESULT:    -7.321      2.335      3.417
REMARK INTER + INTRA:         -10.879
REMARK INTER:                 -10.051
REMARK INTRA:                  -0.828
REMARK UNBOUND:                -1.204
REMARK SMILES CC1(c2ccc(S(N)(=O)=O)cc2)NC(=O)N(CC(=O)C2CCCCC2)C1=O
REMARK SMILES IDX 1 1 2 2 13 3 14 4 15 5 16 6 26 7 27 8 3 10 4 11 12 12 5 13
REMARK SMILES IDX 11 14 6 15 7 16 9 17 10 18 8 19 17 22 18 23 19 24 20 25
REMARK SMILES IDX 21 26 25 27 22 28 24 29 23 30
REMARK H PARENT 13 9 8 20 8 21
ROOT
ATOM      1  C   UNL     1      17.671 -23.664   2.247  1.00  0.00    +0.051 C 
ATOM      2  C   UNL     1      17.301 -22.330   1.589  1.00  0.00    +0.144 C 
ATOM      3  N   UNL     1      16.535 -22.584   0.383  1.00  0.00    -0.319 N 
ATOM      4  C   UNL     1      17.249 -22.320  -0.759  1.00  0.00    +0.325 C 
ATOM      5  O   UNL     1      16.859 -22.576  -1.885  1.00  0.00    -0.248 OA
ATOM      6  N   UNL     1      18.430 -21.748  -0.413  1.00  0.00    -0.254 N 
ATOM      7  C   UNL     1      18.567 -21.707   0.947  1.00  0.00    +0.261 C 
ATOM      8  O   UNL     1      19.542 -21.273   1.548  1.00  0.00    -0.271 OA
ATOM      9  H   UNL     1      15.691 -23.138   0.339  1.00  0.00    +0.166 HD
ENDROOT
BRANCH   2  10
ATOM     10  C   UNL     1      16.604 -21.369   2.549  1.00  0.00    -0.013 A 
ATOM     11  C   UNL     1      16.332 -20.030   2.207  1.00  0.00    +0.008 A 
ATOM     12  C   UNL     1      16.202 -21.816   3.825  1.00  0.00    +0.008 A 
ATOM     13  C   UNL     1      15.684 -19.171   3.101  1.00  0.00    +0.022 A 
ATOM     14  C   UNL     1      15.553 -20.964   4.722  1.00  0.00    +0.022 A 
ATOM     15  C   UNL     1      15.306 -19.643   4.357  1.00  0.00    +0.082 A 
BRANCH  15  16
ATOM     16  S   UNL     1      14.479 -18.568   5.498  1.00  0.00    +0.238 S 
ATOM     17  O   UNL     1      15.410 -18.205   6.539  1.00  0.00    -0.207 OA
ATOM     18  O   UNL     1      13.170 -19.112   5.779  1.00  0.00    -0.207 OA
BRANCH  16  19
ATOM     19  N   UNL     1      14.206 -17.208   4.543  1.00  0.00    -0.225 NA
ATOM     20  H   UNL     1      14.900 -16.473   4.679  1.00  0.00    +0.137 HD
ATOM     21  H   UNL     1      14.143 -17.498   3.566  1.00  0.00    +0.137 HD
ENDBRANCH  16  19
ENDBRANCH  15  16
ENDBRANCH   2  10
BRANCH   6  22
ATOM     22  C   UNL     1      19.475 -21.420  -1.351  1.00  0.00    +0.206 C 
BRANCH  22  23
ATOM     23  C   UNL     1      20.308 -22.671  -1.635  1.00  0.00    +0.155 C 
ATOM     24  O   UNL     1      20.525 -23.527  -0.775  1.00  0.00    -0.297 OA
BRANCH  23  25
ATOM     25  C   UNL     1      20.875 -22.785  -3.049  1.00  0.00    +0.058 C 
ATOM     26  C   UNL     1      21.799 -21.593  -3.343  1.00  0.00    +0.011 C 
ATOM     27  C   UNL     1      19.762 -22.906  -4.094  1.00  0.00    +0.011 C 
ATOM     28  C   UNL     1      21.803 -21.166  -4.813  1.00  0.00    +0.001 C 
ATOM     29  C   UNL     1      20.322 -23.097  -5.504  1.00  0.00    +0.001 C 
ATOM     30  C   UNL     1      21.641 -22.361  -5.742  1.00  0.00    +0.000 C 
ENDBRANCH  23  25
ENDBRANCH  22  23
ENDBRANCH   6  22
TORSDOF 6
ENDMDL
MODEL 9
REMARK VINA RESULT:    -7.283      2.674      4.910
REMARK INTER + INTRA:         -10.829
REMARK INTER:                 -10.103
REMARK INTRA:                  -0.726
REMARK UNBOUND:                -1.204
REMARK SMILES CC1(c2ccc(S(N)(=O)=O)cc2)NC(=O)N(CC(=O)C2CCCCC2)C1=O
REMARK SMILES IDX 1 1 2 2 13 3 14 4 15 5 16 6 26 7 27 8 3 10 4 11 12 12 5 13
REMARK SMILES IDX 11 14 6 15 7 16 9 17 10 18 8 19 17 22 18 23 19 24 20 25
REMARK SMILES IDX 21 26 25 27 22 28 24 29 23 30
REMARK H PARENT 13 9 8 20 8 21
ROOT
ATOM      1  C   UNL     1      18.372 -21.013   1.083  1.00  0.00    +0.051 C 
ATOM      2  C   UNL     1      17.688 -21.578   2.332  1.00  0.00    +0.144 C 
ATOM      3  N   UNL     1      18.697 -21.952   3.306  1.00  0.00    -0.319 N 
ATOM      4  C   UNL     1      18.825 -23.313   3.434  1.00  0.00    +0.325 C 
ATOM      5  O   UNL     1      19.691 -23.860   4.096  1.00  0.00    -0.248 OA
ATOM      6  N   UNL     1      17.851 -23.914   2.706  1.00  0.00    -0.254 N 
ATOM      7  C   UNL     1      17.123 -22.986   2.014  1.00  0.00    +0.261 C 
ATOM      8  O   UNL     1      16.197 -23.237   1.252  1.00  0.00    -0.271 OA
ATOM      9  H   UNL     1      19.416 -21.337   3.660  1.00  0.00    +0.166 HD
ENDROOT
BRANCH   2  10
ATOM     10  C   UNL     1      16.626 -20.640   2.901  1.00  0.00    -0.013 A 
ATOM     11  C   UNL     1      16.031 -20.854   4.159  1.00  0.00    +0.008 A 
ATOM     12  C   UNL     1      16.216 -19.511   2.163  1.00  0.00    +0.008 A 
ATOM     13  C   UNL     1      15.066 -19.975   4.663  1.00  0.00    +0.022 A 
ATOM     14  C   UNL     1      15.254 -18.628   2.660  1.00  0.00    +0.022 A 
ATOM     15  C   UNL     1      14.678 -18.872   3.905  1.00  0.00    +0.082 A 
BRANCH  15  16
ATOM     16  S   UNL     1      13.460 -17.747   4.532  1.00  0.00    +0.238 S 
ATOM     17  O   UNL     1      12.615 -18.461   5.458  1.00  0.00    -0.207 OA
ATOM     18  O   UNL     1      12.932 -16.977   3.430  1.00  0.00    -0.207 OA
BRANCH  16  19
ATOM     19  N   UNL     1      14.414 -16.675   5.414  1.00  0.00    -0.225 NA
ATOM     20  H   UNL     1      14.403 -16.856   6.418  1.00  0.00    +0.137 HD
ATOM     21  H   UNL     1      15.362 -16.687   5.034  1.00  0.00    +0.137 HD
ENDBRANCH  16  19
ENDBRANCH  15  16
ENDBRANCH   2  10
BRANCH   6  22
ATOM     22  C   UNL     1      17.735 -25.341   2.533  1.00  0.00    +0.206 C 
BRANCH  22  23
ATOM     23  C   UNL     1      18.493 -25.758   1.272  1.00  0.00    +0.155 C 
ATOM     24  O   UNL     1      19.354 -25.044   0.755  1.00  0.00    -0.297 OA
BRANCH  23  25
ATOM     25  C   UNL     1      18.102 -27.110   0.677  1.00  0.00    +0.058 C 
ATOM     26  C   UNL     1      17.136 -27.841   1.623  1.00  0.00    +0.011 C 
ATOM     27  C   UNL     1      19.334 -27.962   0.361  1.00  0.00    +0.011 C 
ATOM     28  C   UNL     1      17.273 -29.365   1.582  1.00  0.00    +0.001 C 
ATOM     29  C   UNL     1      18.956 -29.286  -0.305  1.00  0.00    +0.001 C 
ATOM     30  C   UNL     1      17.625 -29.857   0.185  1.00  0.00    +0.000 C 
ENDBRANCH  23  25
ENDBRANCH  22  23
ENDBRANCH   6  22
TORSDOF 6
ENDMDL
