MODEL 1
REMARK VINA RESULT:    -8.435      0.000      0.000
REMARK INTER + INTRA:         -11.569
REMARK INTER:                 -10.407
REMARK INTRA:                  -1.161
REMARK UNBOUND:                -1.161
REMARK SMILES Cc1ccccc1C(=O)CN1C(=O)NC(C)(c2ccc(C#N)cc2)C1=O
REMARK SMILES IDX 8 1 9 2 7 3 2 4 3 5 4 6 6 7 5 8 1 9 10 10 11 11 12 12 25 13
REMARK SMILES IDX 13 14 14 15 15 16 26 17 16 19 17 20 18 21 24 22 19 23 23 24
REMARK SMILES IDX 20 25 21 26 22 27
REMARK H PARENT 14 18
ROOT
ATOM      1  C   UNL     1      18.871 -22.177  -0.827  1.00  0.00    +0.183 C 
ATOM      2  O   UNL     1      19.831 -21.980  -1.569  1.00  0.00    -0.292 OA
ENDROOT
BRANCH   1   3
ATOM      3  C   UNL     1      17.785 -21.166  -0.746  1.00  0.00    +0.022 A 
ATOM      4  C   UNL     1      16.456 -21.508  -1.057  1.00  0.00    -0.040 A 
ATOM      5  C   UNL     1      15.472 -20.511  -0.981  1.00  0.00    +0.004 A 
ATOM      6  C   UNL     1      15.799 -19.211  -0.592  1.00  0.00    +0.000 A 
ATOM      7  C   UNL     1      18.112 -19.857  -0.359  1.00  0.00    +0.012 A 
ATOM      8  C   UNL     1      17.116 -18.884  -0.281  1.00  0.00    +0.001 A 
ATOM      9  C   UNL     1      16.062 -22.897  -1.482  1.00  0.00    +0.045 C 
ENDBRANCH   1   3
BRANCH   1  10
ATOM     10  C   UNL     1      18.716 -23.417   0.046  1.00  0.00    +0.211 C 
BRANCH  10  11
ATOM     11  N   UNL     1      18.609 -23.003   1.426  1.00  0.00    -0.254 N 
ATOM     12  C   UNL     1      19.530 -22.231   2.061  1.00  0.00    +0.325 C 
ATOM     13  C   UNL     1      17.502 -23.182   2.210  1.00  0.00    +0.261 C 
ATOM     14  O   UNL     1      20.585 -21.823   1.605  1.00  0.00    -0.248 OA
ATOM     15  N   UNL     1      19.074 -21.947   3.325  1.00  0.00    -0.319 N 
ATOM     16  C   UNL     1      17.749 -22.483   3.570  1.00  0.00    +0.144 C 
ATOM     17  O   UNL     1      16.498 -23.812   1.899  1.00  0.00    -0.271 OA
ATOM     18  H   UNL     1      19.553 -21.283   3.915  1.00  0.00    +0.166 HD
ATOM     19  C   UNL     1      17.839 -23.579   4.638  1.00  0.00    +0.051 C 
BRANCH  16  20
ATOM     20  C   UNL     1      16.761 -21.352   3.844  1.00  0.00    -0.013 A 
ATOM     21  C   UNL     1      16.516 -20.325   2.916  1.00  0.00    +0.008 A 
ATOM     22  C   UNL     1      16.035 -21.323   5.053  1.00  0.00    +0.008 A 
ATOM     23  C   UNL     1      15.594 -19.305   3.189  1.00  0.00    +0.020 A 
ATOM     24  C   UNL     1      15.116 -20.304   5.327  1.00  0.00    +0.020 A 
ATOM     25  C   UNL     1      14.894 -19.291   4.396  1.00  0.00    +0.052 A 
ATOM     26  C   UNL     1      13.953 -18.246   4.673  1.00  0.00    +0.099 C 
ATOM     27  N   UNL     1      13.189 -17.399   4.887  1.00  0.00    -0.192 NA
ENDBRANCH  16  20
ENDBRANCH  10  11
ENDBRANCH   1  10
TORSDOF 4
ENDMDL
MODEL 2
REMARK VINA RESULT:    -8.197      2.622      6.120
REMARK INTER + INTRA:         -11.276
REMARK INTER:                 -10.774
REMARK INTRA:                  -0.502
REMARK UNBOUND:                -1.161
REMARK SMILES Cc1ccccc1C(=O)CN1C(=O)NC(C)(c2ccc(C#N)cc2)C1=O
REMARK SMILES IDX 8 1 9 2 7 3 2 4 3 5 4 6 6 7 5 8 1 9 10 10 11 11 12 12 25 13
REMARK SMILES IDX 13 14 14 15 15 16 26 17 16 19 17 20 18 21 24 22 19 23 23 24
REMARK SMILES IDX 20 25 21 26 22 27
REMARK H PARENT 14 18
ROOT
ATOM      1  C   UNL     1      15.962 -18.543   0.754  1.00  0.00    +0.183 C 
ATOM      2  O   UNL     1      16.482 -17.440   0.594  1.00  0.00    -0.292 OA
ENDROOT
BRANCH   1   3
ATOM      3  C   UNL     1      15.731 -19.053   2.131  1.00  0.00    +0.022 A 
ATOM      4  C   UNL     1      14.762 -18.465   2.965  1.00  0.00    -0.040 A 
ATOM      5  C   UNL     1      14.596 -18.975   4.262  1.00  0.00    +0.004 A 
ATOM      6  C   UNL     1      15.364 -20.051   4.712  1.00  0.00    +0.000 A 
ATOM      7  C   UNL     1      16.504 -20.131   2.587  1.00  0.00    +0.012 A 
ATOM      8  C   UNL     1      16.316 -20.628   3.876  1.00  0.00    +0.001 A 
ATOM      9  C   UNL     1      13.915 -17.304   2.519  1.00  0.00    +0.045 C 
ENDBRANCH   1   3
BRANCH   1  10
ATOM     10  C   UNL     1      15.532 -19.450  -0.392  1.00  0.00    +0.211 C 
BRANCH  10  11
ATOM     11  N   UNL     1      16.703 -20.092  -0.941  1.00  0.00    -0.254 N 
ATOM     12  C   UNL     1      17.684 -19.435  -1.614  1.00  0.00    +0.325 C 
ATOM     13  C   UNL     1      17.062 -21.393  -0.708  1.00  0.00    +0.261 C 
ATOM     14  O   UNL     1      17.709 -18.250  -1.903  1.00  0.00    -0.248 OA
ATOM     15  N   UNL     1      18.689 -20.323  -1.911  1.00  0.00    -0.319 N 
ATOM     16  C   UNL     1      18.440 -21.644  -1.367  1.00  0.00    +0.144 C 
ATOM     17  O   UNL     1      16.393 -22.222  -0.104  1.00  0.00    -0.271 OA
ATOM     18  H   UNL     1      19.566 -20.007  -2.299  1.00  0.00    +0.166 HD
ATOM     19  C   UNL     1      18.222 -22.630  -2.521  1.00  0.00    +0.051 C 
BRANCH  16  20
ATOM     20  C   UNL     1      19.523 -22.015  -0.357  1.00  0.00    -0.013 A 
ATOM     21  C   UNL     1      20.646 -22.785  -0.707  1.00  0.00    +0.008 A 
ATOM     22  C   UNL     1      19.435 -21.563   0.976  1.00  0.00    +0.008 A 
ATOM     23  C   UNL     1      21.632 -23.101   0.237  1.00  0.00    +0.020 A 
ATOM     24  C   UNL     1      20.417 -21.879   1.920  1.00  0.00    +0.020 A 
ATOM     25  C   UNL     1      21.519 -22.651   1.553  1.00  0.00    +0.052 A 
ATOM     26  C   UNL     1      22.528 -22.976   2.517  1.00  0.00    +0.099 C 
ATOM     27  N   UNL     1      23.352 -23.240   3.291  1.00  0.00    -0.192 NA
ENDBRANCH  16  20
ENDBRANCH  10  11
ENDBRANCH   1  10
TORSDOF 4
ENDMDL
MODEL 3
REMARK VINA RESULT:    -7.912      1.919      4.472
REMARK INTER + INTRA:         -10.923
REMARK INTER:                  -9.980
REMARK INTRA:                  -0.943
REMARK UNBOUND:                -1.161
REMARK SMILES Cc1ccccc1C(=O)CN1C(=O)NC(C)(c2ccc(C#N)cc2)C1=O
REMARK SMILES IDX 8 1 9 2 7 3 2 4 3 5 4 6 6 7 5 8 1 9 10 10 11 11 12 12 25 13
REMARK SMILES IDX 13 14 14 15 15 16 26 17 16 19 17 20 18 21 24 22 19 23 23 24
REMARK SMILES IDX 20 25 21 26 22 27
REMARK H PARENT 14 18
ROOT
ATOM      1  C   UNL     1      17.220 -23.963   0.438  1.00  0.00    +0.183 C 
ATOM      2  O   UNL     1      16.276 -24.710   0.189  1.00  0.00    -0.292 OA
ENDROOT
BRANCH   1   3
ATOM      3  C   UNL     1      17.786 -23.929   1.812  1.00  0.00    +0.022 A 
ATOM      4  C   UNL     1      18.961 -24.639   2.125  1.00  0.00    -0.040 A 
ATOM      5  C   UNL     1      19.444 -24.586   3.442  1.00  0.00    +0.004 A 
ATOM      6  C   UNL     1      18.784 -23.837   4.417  1.00  0.00    +0.000 A 
ATOM      7  C   UNL     1      17.123 -23.181   2.795  1.00  0.00    +0.012 A 
ATOM      8  C   UNL     1      17.626 -23.135   4.095  1.00  0.00    +0.001 A 
ATOM      9  C   UNL     1      19.701 -25.459   1.104  1.00  0.00    +0.045 C 
ENDBRANCH   1   3
BRANCH   1  10
ATOM     10  C   UNL     1      17.862 -23.039  -0.589  1.00  0.00    +0.211 C 
BRANCH  10  11
ATOM     11  N   UNL     1      17.213 -21.750  -0.525  1.00  0.00    -0.254 N 
ATOM     12  C   UNL     1      16.010 -21.477  -1.095  1.00  0.00    +0.325 C 
ATOM     13  C   UNL     1      17.631 -20.704   0.254  1.00  0.00    +0.261 C 
ATOM     14  O   UNL     1      15.334 -22.228  -1.777  1.00  0.00    -0.248 OA
ATOM     15  N   UNL     1      15.644 -20.196  -0.762  1.00  0.00    -0.319 N 
ATOM     16  C   UNL     1      16.592 -19.562   0.134  1.00  0.00    +0.144 C 
ATOM     17  O   UNL     1      18.664 -20.668   0.910  1.00  0.00    -0.271 OA
ATOM     18  H   UNL     1      14.724 -19.843  -0.984  1.00  0.00    +0.166 HD
ATOM     19  C   UNL     1      17.273 -18.398  -0.595  1.00  0.00    +0.051 C 
BRANCH  16  20
ATOM     20  C   UNL     1      15.921 -19.227   1.464  1.00  0.00    -0.013 A 
ATOM     21  C   UNL     1      16.200 -19.933   2.647  1.00  0.00    +0.008 A 
ATOM     22  C   UNL     1      15.004 -18.158   1.546  1.00  0.00    +0.008 A 
ATOM     23  C   UNL     1      15.579 -19.596   3.857  1.00  0.00    +0.020 A 
ATOM     24  C   UNL     1      14.383 -17.821   2.753  1.00  0.00    +0.020 A 
ATOM     25  C   UNL     1      14.668 -18.541   3.913  1.00  0.00    +0.052 A 
ATOM     26  C   UNL     1      14.034 -18.199   5.151  1.00  0.00    +0.099 C 
ATOM     27  N   UNL     1      13.529 -17.925   6.160  1.00  0.00    -0.192 NA
ENDBRANCH  16  20
ENDBRANCH  10  11
ENDBRANCH   1  10
TORSDOF 4
ENDMDL
MODEL 4
REMARK VINA RESULT:    -7.629      2.819      7.277
REMARK INTER + INTRA:         -10.574
REMARK INTER:                 -10.688
REMARK INTRA:                   0.114
REMARK UNBOUND:                -1.161
REMARK SMILES Cc1ccccc1C(=O)CN1C(=O)NC(C)(c2ccc(C#N)cc2)C1=O
REMARK SMILES IDX 8 1 9 2 7 3 2 4 3 5 4 6 6 7 5 8 1 9 10 10 11 11 12 12 25 13
REMARK SMILES IDX 13 14 14 15 15 16 26 17 16 19 17 20 18 21 24 22 19 23 23 24
REMARK SMILES IDX 20 25 21 26 22 27
REMARK H PARENT 14 18
ROOT
ATOM      1  C   UNL     1      15.752 -19.242   2.523  1.00  0.00    +0.183 C 
ATOM      2  O   UNL     1      14.892 -18.497   2.057  1.00  0.00    -0.292 OA
ENDROOT
BRANCH   1   3
ATOM      3  C   UNL     1      15.475 -19.989   3.778  1.00  0.00    +0.022 A 
ATOM      4  C   UNL     1      14.610 -19.461   4.756  1.00  0.00    -0.040 A 
ATOM      5  C   UNL     1      14.397 -20.199   5.930  1.00  0.00    +0.004 A 
ATOM      6  C   UNL     1      15.015 -21.436   6.120  1.00  0.00    +0.000 A 
ATOM      7  C   UNL     1      16.098 -21.230   3.974  1.00  0.00    +0.012 A 
ATOM      8  C   UNL     1      15.864 -21.951   5.145  1.00  0.00    +0.001 A 
ATOM      9  C   UNL     1      13.926 -18.131   4.589  1.00  0.00    +0.045 C 
ENDBRANCH   1   3
BRANCH   1  10
ATOM     10  C   UNL     1      17.122 -19.455   1.890  1.00  0.00    +0.211 C 
BRANCH  10  11
ATOM     11  N   UNL     1      16.946 -20.073   0.597  1.00  0.00    -0.254 N 
ATOM     12  C   UNL     1      16.708 -19.382  -0.549  1.00  0.00    +0.325 C 
ATOM     13  C   UNL     1      17.167 -21.397   0.328  1.00  0.00    +0.261 C 
ATOM     14  O   UNL     1      16.553 -18.177  -0.661  1.00  0.00    -0.248 OA
ATOM     15  N   UNL     1      16.690 -20.264  -1.602  1.00  0.00    -0.319 N 
ATOM     16  C   UNL     1      16.993 -21.621  -1.194  1.00  0.00    +0.144 C 
ATOM     17  O   UNL     1      17.430 -22.261   1.156  1.00  0.00    -0.271 OA
ATOM     18  H   UNL     1      16.652 -19.935  -2.556  1.00  0.00    +0.166 HD
ATOM     19  C   UNL     1      15.749 -22.495  -1.388  1.00  0.00    +0.051 C 
BRANCH  16  20
ATOM     20  C   UNL     1      18.272 -22.106  -1.873  1.00  0.00    -0.013 A 
ATOM     21  C   UNL     1      19.077 -23.121  -1.325  1.00  0.00    +0.008 A 
ATOM     22  C   UNL     1      18.673 -21.553  -3.107  1.00  0.00    +0.008 A 
ATOM     23  C   UNL     1      20.239 -23.554  -1.976  1.00  0.00    +0.020 A 
ATOM     24  C   UNL     1      19.834 -21.985  -3.757  1.00  0.00    +0.020 A 
ATOM     25  C   UNL     1      20.622 -22.987  -3.192  1.00  0.00    +0.052 A 
ATOM     26  C   UNL     1      21.811 -23.432  -3.855  1.00  0.00    +0.099 C 
ATOM     27  N   UNL     1      22.774 -23.803  -4.388  1.00  0.00    -0.192 NA
ENDBRANCH  16  20
ENDBRANCH  10  11
ENDBRANCH   1  10
TORSDOF 4
ENDMDL
MODEL 5
REMARK VINA RESULT:    -7.616      2.658      7.042
REMARK INTER + INTRA:         -10.558
REMARK INTER:                 -10.148
REMARK INTRA:                  -0.410
REMARK UNBOUND:                -1.161
REMARK SMILES Cc1ccccc1C(=O)CN1C(=O)NC(C)(c2ccc(C#N)cc2)C1=O
REMARK SMILES IDX 8 1 9 2 7 3 2 4 3 5 4 6 6 7 5 8 1 9 10 10 11 11 12 12 25 13
REMARK SMILES IDX 13 14 14 15 15 16 26 17 16 19 17 20 18 21 24 22 19 23 23 24
REMARK SMILES IDX 20 25 21 26 22 27
REMARK H PARENT 14 18
ROOT
ATOM      1  C   UNL     1      15.946 -20.343   3.571  1.00  0.00    +0.183 C 
ATOM      2  O   UNL     1      15.654 -21.519   3.781  1.00  0.00    -0.292 OA
ENDROOT
BRANCH   1   3
ATOM      3  C   UNL     1      15.162 -19.263   4.226  1.00  0.00    +0.022 A 
ATOM      4  C   UNL     1      15.247 -19.051   5.615  1.00  0.00    -0.040 A 
ATOM      5  C   UNL     1      14.472 -18.029   6.185  1.00  0.00    +0.004 A 
ATOM      6  C   UNL     1      13.647 -17.229   5.391  1.00  0.00    +0.000 A 
ATOM      7  C   UNL     1      14.329 -18.461   3.432  1.00  0.00    +0.012 A 
ATOM      8  C   UNL     1      13.576 -17.445   4.018  1.00  0.00    +0.001 A 
ATOM      9  C   UNL     1      16.122 -19.891   6.504  1.00  0.00    +0.045 C 
ENDBRANCH   1   3
BRANCH   1  10
ATOM     10  C   UNL     1      17.083 -19.904   2.657  1.00  0.00    +0.211 C 
BRANCH  10  11
ATOM     11  N   UNL     1      16.886 -20.494   1.353  1.00  0.00    -0.254 N 
ATOM     12  C   UNL     1      16.291 -19.853   0.312  1.00  0.00    +0.325 C 
ATOM     13  C   UNL     1      17.419 -21.687   0.948  1.00  0.00    +0.261 C 
ATOM     14  O   UNL     1      15.795 -18.739   0.323  1.00  0.00    -0.248 OA
ATOM     15  N   UNL     1      16.354 -20.660  -0.798  1.00  0.00    -0.319 N 
ATOM     16  C   UNL     1      17.080 -21.890  -0.549  1.00  0.00    +0.144 C 
ATOM     17  O   UNL     1      18.036 -22.473   1.657  1.00  0.00    -0.271 OA
ATOM     18  H   UNL     1      16.079 -20.317  -1.707  1.00  0.00    +0.166 HD
ATOM     19  C   UNL     1      16.111 -23.074  -0.642  1.00  0.00    +0.051 C 
BRANCH  16  20
ATOM     20  C   UNL     1      18.321 -21.962  -1.436  1.00  0.00    -0.013 A 
ATOM     21  C   UNL     1      18.311 -21.546  -2.779  1.00  0.00    +0.008 A 
ATOM     22  C   UNL     1      19.542 -22.433  -0.909  1.00  0.00    +0.008 A 
ATOM     23  C   UNL     1      19.469 -21.612  -3.566  1.00  0.00    +0.020 A 
ATOM     24  C   UNL     1      20.697 -22.500  -1.695  1.00  0.00    +0.020 A 
ATOM     25  C   UNL     1      20.663 -22.091  -3.027  1.00  0.00    +0.052 A 
ATOM     26  C   UNL     1      21.845 -22.157  -3.835  1.00  0.00    +0.099 C 
ATOM     27  N   UNL     1      22.799 -22.203  -4.495  1.00  0.00    -0.192 NA
ENDBRANCH  16  20
ENDBRANCH  10  11
ENDBRANCH   1  10
TORSDOF 4
ENDMDL
MODEL 6
REMARK VINA RESULT:    -7.498      2.534      6.619
REMARK INTER + INTRA:         -10.413
REMARK INTER:                 -10.048
REMARK INTRA:                  -0.364
REMARK UNBOUND:                -1.161
REMARK SMILES Cc1ccccc1C(=O)CN1C(=O)NC(C)(c2ccc(C#N)cc2)C1=O
REMARK SMILES IDX 8 1 9 2 7 3 2 4 3 5 4 6 6 7 5 8 1 9 10 10 11 11 12 12 25 13
REMARK SMILES IDX 13 14 14 15 15 16 26 17 16 19 17 20 18 21 24 22 19 23 23 24
REMARK SMILES IDX 20 25 21 26 22 27
REMARK H PARENT 14 18
ROOT
ATOM      1  C   UNL     1      16.759 -21.804   3.973  1.00  0.00    +0.183 C 
ATOM      2  O   UNL     1      17.714 -22.022   4.715  1.00  0.00    -0.292 OA
ENDROOT
BRANCH   1   3
ATOM      3  C   UNL     1      15.775 -20.750   4.331  1.00  0.00    +0.022 A 
ATOM      4  C   UNL     1      15.030 -20.833   5.523  1.00  0.00    -0.040 A 
ATOM      5  C   UNL     1      14.103 -19.819   5.806  1.00  0.00    +0.004 A 
ATOM      6  C   UNL     1      13.931 -18.743   4.933  1.00  0.00    +0.000 A 
ATOM      7  C   UNL     1      15.597 -19.669   3.455  1.00  0.00    +0.012 A 
ATOM      8  C   UNL     1      14.677 -18.668   3.760  1.00  0.00    +0.001 A 
ATOM      9  C   UNL     1      15.185 -21.977   6.488  1.00  0.00    +0.045 C 
ENDBRANCH   1   3
BRANCH   1  10
ATOM     10  C   UNL     1      16.502 -22.567   2.678  1.00  0.00    +0.211 C 
BRANCH  10  11
ATOM     11  N   UNL     1      17.770 -22.858   2.051  1.00  0.00    -0.254 N 
ATOM     12  C   UNL     1      18.200 -24.113   1.755  1.00  0.00    +0.325 C 
ATOM     13  C   UNL     1      18.612 -21.919   1.519  1.00  0.00    +0.261 C 
ATOM     14  O   UNL     1      17.635 -25.163   2.013  1.00  0.00    -0.248 OA
ATOM     15  N   UNL     1      19.394 -24.025   1.082  1.00  0.00    -0.319 N 
ATOM     16  C   UNL     1      19.789 -22.652   0.831  1.00  0.00    +0.144 C 
ATOM     17  O   UNL     1      18.471 -20.705   1.600  1.00  0.00    -0.271 OA
ATOM     18  H   UNL     1      19.818 -24.840   0.663  1.00  0.00    +0.166 HD
ATOM     19  C   UNL     1      21.056 -22.339   1.635  1.00  0.00    +0.051 C 
BRANCH  16  20
ATOM     20  C   UNL     1      19.859 -22.386  -0.671  1.00  0.00    -0.013 A 
ATOM     21  C   UNL     1      18.754 -21.920  -1.404  1.00  0.00    +0.008 A 
ATOM     22  C   UNL     1      21.068 -22.580  -1.370  1.00  0.00    +0.008 A 
ATOM     23  C   UNL     1      18.849 -21.672  -2.780  1.00  0.00    +0.020 A 
ATOM     24  C   UNL     1      21.164 -22.335  -2.744  1.00  0.00    +0.020 A 
ATOM     25  C   UNL     1      20.053 -21.881  -3.453  1.00  0.00    +0.052 A 
ATOM     26  C   UNL     1      20.147 -21.627  -4.861  1.00  0.00    +0.099 C 
ATOM     27  N   UNL     1      20.217 -21.414  -6.000  1.00  0.00    -0.192 NA
ENDBRANCH  16  20
ENDBRANCH  10  11
ENDBRANCH   1  10
TORSDOF 4
ENDMDL
MODEL 7
REMARK VINA RESULT:    -7.435      2.286      4.479
REMARK INTER + INTRA:         -10.334
REMARK INTER:                  -9.303
REMARK INTRA:                  -1.032
REMARK UNBOUND:                -1.161
REMARK SMILES Cc1ccccc1C(=O)CN1C(=O)NC(C)(c2ccc(C#N)cc2)C1=O
REMARK SMILES IDX 8 1 9 2 7 3 2 4 3 5 4 6 6 7 5 8 1 9 10 10 11 11 12 12 25 13
REMARK SMILES IDX 13 14 14 15 15 16 26 17 16 19 17 20 18 21 24 22 19 23 23 24
REMARK SMILES IDX 20 25 21 26 22 27
REMARK H PARENT 14 18
ROOT
ATOM      1  C   UNL     1      19.431 -25.358   2.201  1.00  0.00    +0.183 C 
ATOM      2  O   UNL     1      19.481 -26.219   1.325  1.00  0.00    -0.292 OA
ENDROOT
BRANCH   1   3
ATOM      3  C   UNL     1      20.671 -24.642   2.599  1.00  0.00    +0.022 A 
ATOM      4  C   UNL     1      21.232 -23.653   1.769  1.00  0.00    -0.040 A 
ATOM      5  C   UNL     1      22.413 -23.020   2.185  1.00  0.00    +0.004 A 
ATOM      6  C   UNL     1      23.013 -23.352   3.401  1.00  0.00    +0.000 A 
ATOM      7  C   UNL     1      21.279 -24.976   3.818  1.00  0.00    +0.012 A 
ATOM      8  C   UNL     1      22.447 -24.328   4.216  1.00  0.00    +0.001 A 
ATOM      9  C   UNL     1      20.617 -23.268   0.451  1.00  0.00    +0.045 C 
ENDBRANCH   1   3
BRANCH   1  10
ATOM     10  C   UNL     1      18.152 -24.967   2.931  1.00  0.00    +0.211 C 
BRANCH  10  11
ATOM     11  N   UNL     1      17.736 -23.661   2.475  1.00  0.00    -0.254 N 
ATOM     12  C   UNL     1      16.886 -23.456   1.434  1.00  0.00    +0.325 C 
ATOM     13  C   UNL     1      17.997 -22.486   3.128  1.00  0.00    +0.261 C 
ATOM     14  O   UNL     1      16.398 -24.304   0.707  1.00  0.00    -0.248 OA
ATOM     15  N   UNL     1      16.629 -22.110   1.332  1.00  0.00    -0.319 N 
ATOM     16  C   UNL     1      17.268 -21.342   2.382  1.00  0.00    +0.144 C 
ATOM     17  O   UNL     1      18.709 -22.360   4.116  1.00  0.00    -0.271 OA
ATOM     18  H   UNL     1      15.922 -21.761   0.700  1.00  0.00    +0.166 HD
ATOM     19  C   UNL     1      18.344 -20.441   1.763  1.00  0.00    +0.051 C 
BRANCH  16  20
ATOM     20  C   UNL     1      16.218 -20.645   3.244  1.00  0.00    -0.013 A 
ATOM     21  C   UNL     1      15.766 -19.342   2.973  1.00  0.00    +0.008 A 
ATOM     22  C   UNL     1      15.644 -21.317   4.344  1.00  0.00    +0.008 A 
ATOM     23  C   UNL     1      14.792 -18.731   3.774  1.00  0.00    +0.020 A 
ATOM     24  C   UNL     1      14.673 -20.707   5.144  1.00  0.00    +0.020 A 
ATOM     25  C   UNL     1      14.245 -19.410   4.862  1.00  0.00    +0.052 A 
ATOM     26  C   UNL     1      13.250 -18.783   5.680  1.00  0.00    +0.099 C 
ATOM     27  N   UNL     1      12.440 -18.269   6.334  1.00  0.00    -0.192 NA
ENDBRANCH  16  20
ENDBRANCH  10  11
ENDBRANCH   1  10
TORSDOF 4
ENDMDL
MODEL 8
REMARK VINA RESULT:    -7.414      1.925      3.257
REMARK INTER + INTRA:         -10.309
REMARK INTER:                  -9.553
REMARK INTRA:                  -0.757
REMARK UNBOUND:                -1.161
REMARK SMILES Cc1ccccc1C(=O)CN1C(=O)NC(C)(c2ccc(C#N)cc2)C1=O
REMARK SMILES IDX 8 1 9 2 7 3 2 4 3 5 4 6 6 7 5 8 1 9 10 10 11 11 12 12 25 13
REMARK SMILES IDX 13 14 14 15 15 16 26 17 16 19 17 20 18 21 24 22 19 23 23 24
REMARK SMILES IDX 20 25 21 26 22 27
REMARK H PARENT 14 18
ROOT
ATOM      1  C   UNL     1      19.233 -23.574  -0.544  1.00  0.00    +0.183 C 
ATOM      2  O   UNL     1      19.182 -24.752  -0.197  1.00  0.00    -0.292 OA
ENDROOT
BRANCH   1   3
ATOM      3  C   UNL     1      20.338 -23.116  -1.427  1.00  0.00    +0.022 A 
ATOM      4  C   UNL     1      21.678 -23.190  -1.004  1.00  0.00    -0.040 A 
ATOM      5  C   UNL     1      22.681 -22.729  -1.871  1.00  0.00    +0.004 A 
ATOM      6  C   UNL     1      22.359 -22.221  -3.131  1.00  0.00    +0.000 A 
ATOM      7  C   UNL     1      20.018 -22.601  -2.693  1.00  0.00    +0.012 A 
ATOM      8  C   UNL     1      21.030 -22.157  -3.541  1.00  0.00    +0.001 A 
ATOM      9  C   UNL     1      22.066 -23.730   0.345  1.00  0.00    +0.045 C 
ENDBRANCH   1   3
BRANCH   1  10
ATOM     10  C   UNL     1      18.221 -22.519  -0.113  1.00  0.00    +0.211 C 
BRANCH  10  11
ATOM     11  N   UNL     1      18.212 -22.444   1.329  1.00  0.00    -0.254 N 
ATOM     12  C   UNL     1      19.139 -21.771   2.060  1.00  0.00    +0.325 C 
ATOM     13  C   UNL     1      17.190 -22.884   2.126  1.00  0.00    +0.261 C 
ATOM     14  O   UNL     1      20.125 -21.189   1.639  1.00  0.00    -0.248 OA
ATOM     15  N   UNL     1      18.780 -21.822   3.385  1.00  0.00    -0.319 N 
ATOM     16  C   UNL     1      17.515 -22.500   3.591  1.00  0.00    +0.144 C 
ATOM     17  O   UNL     1      16.201 -23.500   1.749  1.00  0.00    -0.271 OA
ATOM     18  H   UNL     1      19.271 -21.277   4.079  1.00  0.00    +0.166 HD
ATOM     19  C   UNL     1      17.762 -23.803   4.361  1.00  0.00    +0.051 C 
BRANCH  16  20
ATOM     20  C   UNL     1      16.492 -21.542   4.196  1.00  0.00    -0.013 A 
ATOM     21  C   UNL     1      16.209 -20.287   3.628  1.00  0.00    +0.008 A 
ATOM     22  C   UNL     1      15.770 -21.911   5.350  1.00  0.00    +0.008 A 
ATOM     23  C   UNL     1      15.256 -19.432   4.198  1.00  0.00    +0.020 A 
ATOM     24  C   UNL     1      14.819 -21.058   5.920  1.00  0.00    +0.020 A 
ATOM     25  C   UNL     1      14.561 -19.814   5.345  1.00  0.00    +0.052 A 
ATOM     26  C   UNL     1      13.587 -18.937   5.925  1.00  0.00    +0.099 C 
ATOM     27  N   UNL     1      12.796 -18.224   6.386  1.00  0.00    -0.192 NA
ENDBRANCH  16  20
ENDBRANCH  10  11
ENDBRANCH   1  10
TORSDOF 4
ENDMDL
MODEL 9
REMARK VINA RESULT:    -7.239      2.723      6.628
REMARK INTER + INTRA:         -10.093
REMARK INTER:                  -9.687
REMARK INTRA:                  -0.406
REMARK UNBOUND:                -1.161
REMARK SMILES Cc1ccccc1C(=O)CN1C(=O)NC(C)(c2ccc(C#N)cc2)C1=O
REMARK SMILES IDX 8 1 9 2 7 3 2 4 3 5 4 6 6 7 5 8 1 9 10 10 11 11 12 12 25 13
REMARK SMILES IDX 13 14 14 15 15 16 26 17 16 19 17 20 18 21 24 22 19 23 23 24
REMARK SMILES IDX 20 25 21 26 22 27
REMARK H PARENT 14 18
ROOT
ATOM      1  C   UNL     1      16.117 -19.847   3.315  1.00  0.00    +0.183 C 
ATOM      2  O   UNL     1      16.923 -19.313   2.557  1.00  0.00    -0.292 OA
ENDROOT
BRANCH   1   3
ATOM      3  C   UNL     1      15.170 -19.006   4.093  1.00  0.00    +0.022 A 
ATOM      4  C   UNL     1      15.184 -19.016   5.501  1.00  0.00    -0.040 A 
ATOM      5  C   UNL     1      14.258 -18.216   6.186  1.00  0.00    +0.004 A 
ATOM      6  C   UNL     1      13.351 -17.414   5.489  1.00  0.00    +0.000 A 
ATOM      7  C   UNL     1      14.256 -18.202   3.396  1.00  0.00    +0.012 A 
ATOM      8  C   UNL     1      13.350 -17.407   4.097  1.00  0.00    +0.001 A 
ATOM      9  C   UNL     1      16.143 -19.867   6.288  1.00  0.00    +0.045 C 
ENDBRANCH   1   3
BRANCH   1  10
ATOM     10  C   UNL     1      16.023 -21.354   3.526  1.00  0.00    +0.211 C 
BRANCH  10  11
ATOM     11  N   UNL     1      17.228 -21.970   3.020  1.00  0.00    -0.254 N 
ATOM     12  C   UNL     1      18.284 -22.323   3.799  1.00  0.00    +0.325 C 
ATOM     13  C   UNL     1      17.389 -22.433   1.742  1.00  0.00    +0.261 C 
ATOM     14  O   UNL     1      18.409 -22.133   4.997  1.00  0.00    -0.248 OA
ATOM     15  N   UNL     1      19.213 -22.967   3.018  1.00  0.00    -0.319 N 
ATOM     16  C   UNL     1      18.766 -23.136   1.649  1.00  0.00    +0.144 C 
ATOM     17  O   UNL     1      16.593 -22.292   0.823  1.00  0.00    -0.271 OA
ATOM     18  H   UNL     1      20.017 -23.419   3.430  1.00  0.00    +0.166 HD
ATOM     19  C   UNL     1      19.649 -22.290   0.723  1.00  0.00    +0.051 C 
BRANCH  16  20
ATOM     20  C   UNL     1      18.655 -24.619   1.307  1.00  0.00    -0.013 A 
ATOM     21  C   UNL     1      19.530 -25.252   0.407  1.00  0.00    +0.008 A 
ATOM     22  C   UNL     1      17.664 -25.416   1.918  1.00  0.00    +0.008 A 
ATOM     23  C   UNL     1      19.412 -26.618   0.120  1.00  0.00    +0.020 A 
ATOM     24  C   UNL     1      17.545 -26.780   1.632  1.00  0.00    +0.020 A 
ATOM     25  C   UNL     1      18.419 -27.385   0.730  1.00  0.00    +0.052 A 
ATOM     26  C   UNL     1      18.301 -28.782   0.434  1.00  0.00    +0.099 C 
ATOM     27  N   UNL     1      18.215 -29.914   0.193  1.00  0.00    -0.192 NA
ENDBRANCH  16  20
ENDBRANCH  10  11
ENDBRANCH   1  10
TORSDOF 4
ENDMDL
