MODEL 1
REMARK VINA RESULT:    -9.490      0.000      0.000
REMARK INTER + INTRA:         -14.065
REMARK INTER:                 -12.819
REMARK INTRA:                  -1.246
REMARK UNBOUND:                -1.246
REMARK SMILES O=C(NC(=O)c1ccsc1NC(=O)c1nc2ccccc2s1)OCC1CCCCC1
REMARK SMILES IDX 1 1 2 2 3 3 4 4 5 5 23 7 24 8 25 9 26 10 30 11 27 12 29 13
REMARK SMILES IDX 28 14 6 15 7 16 10 17 8 18 9 19 11 20 12 21 13 22 14 24
REMARK SMILES IDX 15 25 22 26 16 27 21 28 17 29 20 30 18 31 19 32
REMARK H PARENT 3 6 11 23
ROOT
ATOM      1  O   UNL     1      17.255 -21.151   6.210  1.00  0.00    -0.224 OA
ATOM      2  C   UNL     1      16.507 -21.173   5.248  1.00  0.00    +0.414 C 
ATOM      3  N   UNL     1      15.583 -20.239   4.883  1.00  0.00    -0.257 N 
ATOM      4  C   UNL     1      15.417 -19.010   5.477  1.00  0.00    +0.263 C 
ATOM      5  O   UNL     1      16.100 -18.584   6.401  1.00  0.00    -0.269 OA
ATOM      6  H   UNL     1      15.071 -20.479   4.053  1.00  0.00    +0.176 HD
ENDROOT
BRANCH   2   7
ATOM      7  O   UNL     1      16.442 -22.193   4.349  1.00  0.00    -0.449 OA
BRANCH   7   8
ATOM      8  C   UNL     1      17.663 -22.928   4.146  1.00  0.00    +0.238 C 
BRANCH   8   9
ATOM      9  C   UNL     1      17.789 -23.401   2.691  1.00  0.00    +0.027 C 
ATOM     10  C   UNL     1      16.416 -23.389   2.006  1.00  0.00    +0.007 C 
ATOM     11  C   UNL     1      18.430 -24.796   2.609  1.00  0.00    +0.007 C 
ATOM     12  C   UNL     1      16.495 -23.898   0.569  1.00  0.00    +0.000 C 
ATOM     13  C   UNL     1      18.500 -25.303   1.171  1.00  0.00    +0.000 C 
ATOM     14  C   UNL     1      17.132 -25.283   0.497  1.00  0.00    +0.000 C 
ENDBRANCH   8   9
ENDBRANCH   7   8
ENDBRANCH   2   7
BRANCH   4  15
ATOM     15  C   UNL     1      14.344 -18.185   4.892  1.00  0.00    +0.075 A 
ATOM     16  C   UNL     1      13.311 -17.458   5.590  1.00  0.00    +0.028 A 
ATOM     17  C   UNL     1      14.220 -17.995   3.518  1.00  0.00    +0.108 A 
ATOM     18  C   UNL     1      12.459 -16.790   4.740  1.00  0.00    +0.068 A 
ATOM     19  S   UNL     1      12.891 -17.018   3.111  1.00  0.00    -0.126 S 
BRANCH  17  20
ATOM     20  N   UNL     1      15.051 -18.518   2.542  1.00  0.00    -0.311 N 
ATOM     21  C   UNL     1      15.555 -17.898   1.407  1.00  0.00    +0.285 C 
ATOM     22  O   UNL     1      15.326 -16.742   1.062  1.00  0.00    -0.266 OA
ATOM     23  H   UNL     1      15.351 -19.490   2.678  1.00  0.00    +0.171 HD
BRANCH  21  24
ATOM     24  C   UNL     1      16.413 -18.804   0.641  1.00  0.00    +0.182 A 
ATOM     25  N   UNL     1      16.379 -18.865  -0.677  1.00  0.00    -0.231 NA
ATOM     26  S   UNL     1      17.524 -19.849   1.414  1.00  0.00    -0.109 S 
ATOM     27  C   UNL     1      17.292 -19.806  -1.122  1.00  0.00    +0.082 A 
ATOM     28  C   UNL     1      18.019 -20.455  -0.121  1.00  0.00    +0.055 A 
ATOM     29  C   UNL     1      17.536 -20.148  -2.467  1.00  0.00    +0.030 A 
ATOM     30  C   UNL     1      18.982 -21.433  -0.419  1.00  0.00    +0.021 A 
ATOM     31  C   UNL     1      18.492 -21.120  -2.775  1.00  0.00    +0.002 A 
ATOM     32  C   UNL     1      19.205 -21.754  -1.762  1.00  0.00    +0.002 A 
ENDBRANCH  21  24
ENDBRANCH  17  20
ENDBRANCH   4  15
TORSDOF 6
ENDMDL
MODEL 2
REMARK VINA RESULT:    -9.009      1.668      4.424
REMARK INTER + INTRA:         -13.416
REMARK INTER:                 -12.017
REMARK INTRA:                  -1.399
REMARK UNBOUND:                -1.246
REMARK SMILES O=C(NC(=O)c1ccsc1NC(=O)c1nc2ccccc2s1)OCC1CCCCC1
REMARK SMILES IDX 1 1 2 2 3 3 4 4 5 5 23 7 24 8 25 9 26 10 30 11 27 12 29 13
REMARK SMILES IDX 28 14 6 15 7 16 10 17 8 18 9 19 11 20 12 21 13 22 14 24
REMARK SMILES IDX 15 25 22 26 16 27 21 28 17 29 20 30 18 31 19 32
REMARK H PARENT 3 6 11 23
ROOT
ATOM      1  O   UNL     1      16.247 -17.807  -0.009  1.00  0.00    -0.224 OA
ATOM      2  C   UNL     1      16.029 -18.671   0.823  1.00  0.00    +0.414 C 
ATOM      3  N   UNL     1      15.308 -18.563   1.976  1.00  0.00    -0.257 N 
ATOM      4  C   UNL     1      14.568 -17.466   2.351  1.00  0.00    +0.263 C 
ATOM      5  O   UNL     1      14.440 -16.449   1.680  1.00  0.00    -0.269 OA
ATOM      6  H   UNL     1      15.276 -19.410   2.513  1.00  0.00    +0.176 HD
ENDROOT
BRANCH   2   7
ATOM      7  O   UNL     1      16.514 -19.941   0.756  1.00  0.00    -0.449 OA
BRANCH   7   8
ATOM      8  C   UNL     1      17.113 -20.318  -0.497  1.00  0.00    +0.238 C 
BRANCH   8   9
ATOM      9  C   UNL     1      18.540 -20.847  -0.292  1.00  0.00    +0.027 C 
ATOM     10  C   UNL     1      18.725 -22.179  -1.032  1.00  0.00    +0.007 C 
ATOM     11  C   UNL     1      18.871 -21.001   1.202  1.00  0.00    +0.007 C 
ATOM     12  C   UNL     1      20.120 -22.760  -0.813  1.00  0.00    +0.000 C 
ATOM     13  C   UNL     1      20.264 -21.588   1.415  1.00  0.00    +0.000 C 
ATOM     14  C   UNL     1      20.441 -22.908   0.672  1.00  0.00    +0.000 C 
ENDBRANCH   8   9
ENDBRANCH   7   8
ENDBRANCH   2   7
BRANCH   4  15
ATOM     15  C   UNL     1      13.880 -17.604   3.648  1.00  0.00    +0.075 A 
ATOM     16  C   UNL     1      12.938 -16.690   4.246  1.00  0.00    +0.028 A 
ATOM     17  C   UNL     1      14.068 -18.709   4.474  1.00  0.00    +0.108 A 
ATOM     18  C   UNL     1      12.485 -17.116   5.474  1.00  0.00    +0.068 A 
ATOM     19  S   UNL     1      13.172 -18.608   5.913  1.00  0.00    -0.126 S 
BRANCH  17  20
ATOM     20  N   UNL     1      14.881 -19.799   4.209  1.00  0.00    -0.311 N 
ATOM     21  C   UNL     1      15.948 -20.286   4.951  1.00  0.00    +0.285 C 
ATOM     22  O   UNL     1      16.372 -19.804   5.997  1.00  0.00    -0.266 OA
ATOM     23  H   UNL     1      14.660 -20.330   3.359  1.00  0.00    +0.171 HD
BRANCH  21  24
ATOM     24  C   UNL     1      16.534 -21.473   4.324  1.00  0.00    +0.182 A 
ATOM     25  N   UNL     1      16.082 -21.970   3.188  1.00  0.00    -0.231 NA
ATOM     26  S   UNL     1      17.855 -22.297   5.032  1.00  0.00    -0.109 S 
ATOM     27  C   UNL     1      16.824 -23.086   2.842  1.00  0.00    +0.082 A 
ATOM     28  C   UNL     1      17.846 -23.426   3.731  1.00  0.00    +0.055 A 
ATOM     29  C   UNL     1      16.631 -23.881   1.694  1.00  0.00    +0.030 A 
ATOM     30  C   UNL     1      18.682 -24.532   3.512  1.00  0.00    +0.021 A 
ATOM     31  C   UNL     1      17.458 -24.985   1.466  1.00  0.00    +0.002 A 
ATOM     32  C   UNL     1      18.471 -25.305   2.365  1.00  0.00    +0.002 A 
ENDBRANCH  21  24
ENDBRANCH  17  20
ENDBRANCH   4  15
TORSDOF 6
ENDMDL
MODEL 3
REMARK VINA RESULT:    -8.952      3.364      7.879
REMARK INTER + INTRA:         -13.338
REMARK INTER:                 -12.324
REMARK INTRA:                  -1.014
REMARK UNBOUND:                -1.246
REMARK SMILES O=C(NC(=O)c1ccsc1NC(=O)c1nc2ccccc2s1)OCC1CCCCC1
REMARK SMILES IDX 1 1 2 2 3 3 4 4 5 5 23 7 24 8 25 9 26 10 30 11 27 12 29 13
REMARK SMILES IDX 28 14 6 15 7 16 10 17 8 18 9 19 11 20 12 21 13 22 14 24
REMARK SMILES IDX 15 25 22 26 16 27 21 28 17 29 20 30 18 31 19 32
REMARK H PARENT 3 6 11 23
ROOT
ATOM      1  O   UNL     1      17.047 -20.803  -2.817  1.00  0.00    -0.224 OA
ATOM      2  C   UNL     1      18.085 -21.276  -2.387  1.00  0.00    +0.414 C 
ATOM      3  N   UNL     1      18.249 -22.103  -1.315  1.00  0.00    -0.257 N 
ATOM      4  C   UNL     1      17.230 -22.670  -0.585  1.00  0.00    +0.263 C 
ATOM      5  O   UNL     1      16.036 -22.526  -0.824  1.00  0.00    -0.269 OA
ATOM      6  H   UNL     1      19.204 -22.357  -1.142  1.00  0.00    +0.176 HD
ENDROOT
BRANCH   2   7
ATOM      7  O   UNL     1      19.317 -21.028  -2.910  1.00  0.00    -0.449 OA
BRANCH   7   8
ATOM      8  C   UNL     1      19.938 -22.128  -3.600  1.00  0.00    +0.238 C 
BRANCH   8   9
ATOM      9  C   UNL     1      20.294 -21.745  -5.044  1.00  0.00    +0.027 C 
ATOM     10  C   UNL     1      20.188 -22.970  -5.961  1.00  0.00    +0.007 C 
ATOM     11  C   UNL     1      21.695 -21.117  -5.128  1.00  0.00    +0.007 C 
ATOM     12  C   UNL     1      20.580 -22.638  -7.399  1.00  0.00    +0.000 C 
ATOM     13  C   UNL     1      22.085 -20.793  -6.568  1.00  0.00    +0.000 C 
ATOM     14  C   UNL     1      21.971 -22.016  -7.473  1.00  0.00    +0.000 C 
ENDBRANCH   8   9
ENDBRANCH   7   8
ENDBRANCH   2   7
BRANCH   4  15
ATOM     15  C   UNL     1      17.676 -23.528   0.529  1.00  0.00    +0.075 A 
ATOM     16  C   UNL     1      18.437 -24.751   0.449  1.00  0.00    +0.028 A 
ATOM     17  C   UNL     1      17.405 -23.216   1.859  1.00  0.00    +0.108 A 
ATOM     18  C   UNL     1      18.682 -25.310   1.683  1.00  0.00    +0.068 A 
ATOM     19  S   UNL     1      18.015 -24.377   2.938  1.00  0.00    -0.126 S 
BRANCH  17  20
ATOM     20  N   UNL     1      16.721 -22.102   2.314  1.00  0.00    -0.311 N 
ATOM     21  C   UNL     1      17.139 -20.778   2.346  1.00  0.00    +0.285 C 
ATOM     22  O   UNL     1      18.233 -20.365   1.972  1.00  0.00    -0.266 OA
ATOM     23  H   UNL     1      15.770 -22.268   2.663  1.00  0.00    +0.171 HD
BRANCH  21  24
ATOM     24  C   UNL     1      16.101 -19.904   2.895  1.00  0.00    +0.182 A 
ATOM     25  N   UNL     1      15.602 -20.072   4.106  1.00  0.00    -0.231 NA
ATOM     26  S   UNL     1      15.464 -18.598   1.994  1.00  0.00    -0.109 S 
ATOM     27  C   UNL     1      14.643 -19.104   4.350  1.00  0.00    +0.082 A 
ATOM     28  C   UNL     1      14.424 -18.200   3.308  1.00  0.00    +0.055 A 
ATOM     29  C   UNL     1      13.893 -18.967   5.536  1.00  0.00    +0.030 A 
ATOM     30  C   UNL     1      13.482 -17.164   3.412  1.00  0.00    +0.021 A 
ATOM     31  C   UNL     1      12.953 -17.938   5.649  1.00  0.00    +0.002 A 
ATOM     32  C   UNL     1      12.751 -17.049   4.599  1.00  0.00    +0.002 A 
ENDBRANCH  21  24
ENDBRANCH  17  20
ENDBRANCH   4  15
TORSDOF 6
ENDMDL
MODEL 4
REMARK VINA RESULT:    -8.927      2.027      4.641
REMARK INTER + INTRA:         -13.304
REMARK INTER:                 -11.898
REMARK INTRA:                  -1.406
REMARK UNBOUND:                -1.246
REMARK SMILES O=C(NC(=O)c1ccsc1NC(=O)c1nc2ccccc2s1)OCC1CCCCC1
REMARK SMILES IDX 1 1 2 2 3 3 4 4 5 5 23 7 24 8 25 9 26 10 30 11 27 12 29 13
REMARK SMILES IDX 28 14 6 15 7 16 10 17 8 18 9 19 11 20 12 21 13 22 14 24
REMARK SMILES IDX 15 25 22 26 16 27 21 28 17 29 20 30 18 31 19 32
REMARK H PARENT 3 6 11 23
ROOT
ATOM      1  O   UNL     1      16.627 -18.424  -1.191  1.00  0.00    -0.224 OA
ATOM      2  C   UNL     1      16.012 -19.243  -0.531  1.00  0.00    +0.414 C 
ATOM      3  N   UNL     1      15.421 -19.068   0.686  1.00  0.00    -0.257 N 
ATOM      4  C   UNL     1      15.298 -17.866   1.344  1.00  0.00    +0.263 C 
ATOM      5  O   UNL     1      15.683 -16.788   0.906  1.00  0.00    -0.269 OA
ATOM      6  H   UNL     1      14.979 -19.895   1.044  1.00  0.00    +0.176 HD
ENDROOT
BRANCH   2   7
ATOM      7  O   UNL     1      15.825 -20.541  -0.898  1.00  0.00    -0.449 OA
BRANCH   7   8
ATOM      8  C   UNL     1      16.859 -21.116  -1.717  1.00  0.00    +0.238 C 
BRANCH   8   9
ATOM      9  C   UNL     1      17.089 -22.592  -1.363  1.00  0.00    +0.027 C 
ATOM     10  C   UNL     1      16.110 -23.036  -0.267  1.00  0.00    +0.007 C 
ATOM     11  C   UNL     1      18.543 -22.846  -0.933  1.00  0.00    +0.007 C 
ATOM     12  C   UNL     1      16.339 -24.488   0.144  1.00  0.00    +0.000 C 
ATOM     13  C   UNL     1      18.765 -24.298  -0.516  1.00  0.00    +0.000 C 
ATOM     14  C   UNL     1      17.784 -24.731   0.569  1.00  0.00    +0.000 C 
ENDBRANCH   8   9
ENDBRANCH   7   8
ENDBRANCH   2   7
BRANCH   4  15
ATOM     15  C   UNL     1      14.617 -17.948   2.649  1.00  0.00    +0.075 A 
ATOM     16  C   UNL     1      13.493 -17.166   3.107  1.00  0.00    +0.028 A 
ATOM     17  C   UNL     1      15.000 -18.858   3.631  1.00  0.00    +0.108 A 
ATOM     18  C   UNL     1      13.102 -17.490   4.386  1.00  0.00    +0.068 A 
ATOM     19  S   UNL     1      14.064 -18.730   5.042  1.00  0.00    -0.126 S 
BRANCH  17  20
ATOM     20  N   UNL     1      16.022 -19.787   3.529  1.00  0.00    -0.311 N 
ATOM     21  C   UNL     1      16.025 -21.120   3.916  1.00  0.00    +0.285 C 
ATOM     22  O   UNL     1      15.090 -21.714   4.444  1.00  0.00    -0.266 OA
ATOM     23  H   UNL     1      16.892 -19.455   3.098  1.00  0.00    +0.171 HD
BRANCH  21  24
ATOM     24  C   UNL     1      17.310 -21.759   3.620  1.00  0.00    +0.182 A 
ATOM     25  N   UNL     1      17.773 -22.776   4.321  1.00  0.00    -0.231 NA
ATOM     26  S   UNL     1      18.298 -21.220   2.332  1.00  0.00    -0.109 S 
ATOM     27  C   UNL     1      19.001 -23.167   3.815  1.00  0.00    +0.082 A 
ATOM     28  C   UNL     1      19.459 -22.432   2.719  1.00  0.00    +0.055 A 
ATOM     29  C   UNL     1      19.799 -24.219   4.308  1.00  0.00    +0.030 A 
ATOM     30  C   UNL     1      20.688 -22.713   2.099  1.00  0.00    +0.021 A 
ATOM     31  C   UNL     1      21.024 -24.508   3.698  1.00  0.00    +0.002 A 
ATOM     32  C   UNL     1      21.461 -23.762   2.607  1.00  0.00    +0.002 A 
ENDBRANCH  21  24
ENDBRANCH  17  20
ENDBRANCH   4  15
TORSDOF 6
ENDMDL
MODEL 5
REMARK VINA RESULT:    -8.651      4.073      7.635
REMARK INTER + INTRA:         -12.932
REMARK INTER:                 -11.998
REMARK INTRA:                  -0.935
REMARK UNBOUND:                -1.246
REMARK SMILES O=C(NC(=O)c1ccsc1NC(=O)c1nc2ccccc2s1)OCC1CCCCC1
REMARK SMILES IDX 1 1 2 2 3 3 4 4 5 5 23 7 24 8 25 9 26 10 30 11 27 12 29 13
REMARK SMILES IDX 28 14 6 15 7 16 10 17 8 18 9 19 11 20 12 21 13 22 14 24
REMARK SMILES IDX 15 25 22 26 16 27 21 28 17 29 20 30 18 31 19 32
REMARK H PARENT 3 6 11 23
ROOT
ATOM      1  O   UNL     1      16.311 -18.448  -1.177  1.00  0.00    -0.224 OA
ATOM      2  C   UNL     1      16.289 -19.187  -0.209  1.00  0.00    +0.414 C 
ATOM      3  N   UNL     1      17.173 -20.173   0.114  1.00  0.00    -0.257 N 
ATOM      4  C   UNL     1      18.352 -20.431  -0.546  1.00  0.00    +0.263 C 
ATOM      5  O   UNL     1      18.775 -19.785  -1.498  1.00  0.00    -0.269 OA
ATOM      6  H   UNL     1      16.944 -20.662   0.960  1.00  0.00    +0.176 HD
ENDROOT
BRANCH   2   7
ATOM      7  O   UNL     1      15.319 -19.173   0.746  1.00  0.00    -0.449 OA
BRANCH   7   8
ATOM      8  C   UNL     1      15.439 -18.145   1.747  1.00  0.00    +0.238 C 
BRANCH   8   9
ATOM      9  C   UNL     1      14.346 -18.283   2.816  1.00  0.00    +0.027 C 
ATOM     10  C   UNL     1      13.725 -16.914   3.123  1.00  0.00    +0.007 C 
ATOM     11  C   UNL     1      14.894 -18.935   4.097  1.00  0.00    +0.007 C 
ATOM     12  C   UNL     1      12.664 -17.004   4.217  1.00  0.00    +0.000 C 
ATOM     13  C   UNL     1      13.831 -19.017   5.190  1.00  0.00    +0.000 C 
ATOM     14  C   UNL     1      13.216 -17.652   5.483  1.00  0.00    +0.000 C 
ENDBRANCH   8   9
ENDBRANCH   7   8
ENDBRANCH   2   7
BRANCH   4  15
ATOM     15  C   UNL     1      19.131 -21.557   0.004  1.00  0.00    +0.075 A 
ATOM     16  C   UNL     1      19.023 -22.143   1.318  1.00  0.00    +0.028 A 
ATOM     17  C   UNL     1      20.098 -22.224  -0.743  1.00  0.00    +0.108 A 
ATOM     18  C   UNL     1      19.906 -23.181   1.514  1.00  0.00    +0.068 A 
ATOM     19  S   UNL     1      20.856 -23.467   0.133  1.00  0.00    -0.126 S 
BRANCH  17  20
ATOM     20  N   UNL     1      20.450 -21.952  -2.054  1.00  0.00    -0.311 N 
ATOM     21  C   UNL     1      19.866 -22.418  -3.224  1.00  0.00    +0.285 C 
ATOM     22  O   UNL     1      18.912 -23.187  -3.291  1.00  0.00    -0.266 OA
ATOM     23  H   UNL     1      21.239 -21.309  -2.185  1.00  0.00    +0.171 HD
BRANCH  21  24
ATOM     24  C   UNL     1      20.538 -21.875  -4.407  1.00  0.00    +0.182 A 
ATOM     25  N   UNL     1      19.877 -21.502  -5.487  1.00  0.00    -0.231 NA
ATOM     26  S   UNL     1      22.237 -21.690  -4.463  1.00  0.00    -0.109 S 
ATOM     27  C   UNL     1      20.768 -21.034  -6.437  1.00  0.00    +0.082 A 
ATOM     28  C   UNL     1      22.114 -21.058  -6.061  1.00  0.00    +0.055 A 
ATOM     29  C   UNL     1      20.431 -20.551  -7.718  1.00  0.00    +0.030 A 
ATOM     30  C   UNL     1      23.132 -20.614  -6.920  1.00  0.00    +0.021 A 
ATOM     31  C   UNL     1      21.437 -20.107  -8.581  1.00  0.00    +0.002 A 
ATOM     32  C   UNL     1      22.771 -20.139  -8.185  1.00  0.00    +0.002 A 
ENDBRANCH  21  24
ENDBRANCH  17  20
ENDBRANCH   4  15
TORSDOF 6
ENDMDL
MODEL 6
REMARK VINA RESULT:    -8.539      3.015      7.560
REMARK INTER + INTRA:         -12.781
REMARK INTER:                 -11.660
REMARK INTRA:                  -1.121
REMARK UNBOUND:                -1.246
REMARK SMILES O=C(NC(=O)c1ccsc1NC(=O)c1nc2ccccc2s1)OCC1CCCCC1
REMARK SMILES IDX 1 1 2 2 3 3 4 4 5 5 23 7 24 8 25 9 26 10 30 11 27 12 29 13
REMARK SMILES IDX 28 14 6 15 7 16 10 17 8 18 9 19 11 20 12 21 13 22 14 24
REMARK SMILES IDX 15 25 22 26 16 27 21 28 17 29 20 30 18 31 19 32
REMARK H PARENT 3 6 11 23
ROOT
ATOM      1  O   UNL     1      15.592 -21.572  -2.418  1.00  0.00    -0.224 OA
ATOM      2  C   UNL     1      16.762 -21.765  -2.137  1.00  0.00    +0.414 C 
ATOM      3  N   UNL     1      17.267 -22.519  -1.119  1.00  0.00    -0.257 N 
ATOM      4  C   UNL     1      16.528 -23.324  -0.284  1.00  0.00    +0.263 C 
ATOM      5  O   UNL     1      15.316 -23.488  -0.364  1.00  0.00    -0.269 OA
ATOM      6  H   UNL     1      18.269 -22.522  -1.077  1.00  0.00    +0.176 HD
ENDROOT
BRANCH   2   7
ATOM      7  O   UNL     1      17.813 -21.215  -2.804  1.00  0.00    -0.449 OA
BRANCH   7   8
ATOM      8  C   UNL     1      19.119 -21.643  -2.379  1.00  0.00    +0.238 C 
BRANCH   8   9
ATOM      9  C   UNL     1      20.028 -21.928  -3.583  1.00  0.00    +0.027 C 
ATOM     10  C   UNL     1      21.494 -21.652  -3.222  1.00  0.00    +0.007 C 
ATOM     11  C   UNL     1      19.604 -21.107  -4.812  1.00  0.00    +0.007 C 
ATOM     12  C   UNL     1      22.424 -21.881  -4.411  1.00  0.00    +0.000 C 
ATOM     13  C   UNL     1      20.541 -21.334  -5.996  1.00  0.00    +0.000 C 
ATOM     14  C   UNL     1      21.996 -21.063  -5.625  1.00  0.00    +0.000 C 
ENDBRANCH   8   9
ENDBRANCH   7   8
ENDBRANCH   2   7
BRANCH   4  15
ATOM     15  C   UNL     1      17.316 -24.036   0.739  1.00  0.00    +0.075 A 
ATOM     16  C   UNL     1      18.165 -25.188   0.553  1.00  0.00    +0.028 A 
ATOM     17  C   UNL     1      17.339 -23.633   2.072  1.00  0.00    +0.108 A 
ATOM     18  C   UNL     1      18.755 -25.612   1.722  1.00  0.00    +0.068 A 
ATOM     19  S   UNL     1      18.310 -24.635   3.040  1.00  0.00    -0.126 S 
BRANCH  17  20
ATOM     20  N   UNL     1      16.666 -22.549   2.610  1.00  0.00    -0.311 N 
ATOM     21  C   UNL     1      17.056 -21.217   2.647  1.00  0.00    +0.285 C 
ATOM     22  O   UNL     1      18.108 -20.767   2.204  1.00  0.00    -0.266 OA
ATOM     23  H   UNL     1      15.749 -22.748   3.024  1.00  0.00    +0.171 HD
BRANCH  21  24
ATOM     24  C   UNL     1      16.042 -20.384   3.299  1.00  0.00    +0.182 A 
ATOM     25  N   UNL     1      15.574 -19.280   2.747  1.00  0.00    -0.231 NA
ATOM     26  S   UNL     1      15.396 -20.795   4.828  1.00  0.00    -0.109 S 
ATOM     27  C   UNL     1      14.635 -18.705   3.587  1.00  0.00    +0.082 A 
ATOM     28  C   UNL     1      14.399 -19.390   4.781  1.00  0.00    +0.055 A 
ATOM     29  C   UNL     1      13.922 -17.515   3.336  1.00  0.00    +0.030 A 
ATOM     30  C   UNL     1      13.474 -18.928   5.731  1.00  0.00    +0.021 A 
ATOM     31  C   UNL     1      12.999 -17.046   4.275  1.00  0.00    +0.002 A 
ATOM     32  C   UNL     1      12.779 -17.746   5.458  1.00  0.00    +0.002 A 
ENDBRANCH  21  24
ENDBRANCH  17  20
ENDBRANCH   4  15
TORSDOF 6
ENDMDL
MODEL 7
REMARK VINA RESULT:    -8.299      2.960      5.454
REMARK INTER + INTRA:         -12.457
REMARK INTER:                 -11.436
REMARK INTRA:                  -1.021
REMARK UNBOUND:                -1.246
REMARK SMILES O=C(NC(=O)c1ccsc1NC(=O)c1nc2ccccc2s1)OCC1CCCCC1
REMARK SMILES IDX 1 1 2 2 3 3 4 4 5 5 23 7 24 8 25 9 26 10 30 11 27 12 29 13
REMARK SMILES IDX 28 14 6 15 7 16 10 17 8 18 9 19 11 20 12 21 13 22 14 24
REMARK SMILES IDX 15 25 22 26 16 27 21 28 17 29 20 30 18 31 19 32
REMARK H PARENT 3 6 11 23
ROOT
ATOM      1  O   UNL     1      18.739 -22.982   4.185  1.00  0.00    -0.224 OA
ATOM      2  C   UNL     1      17.844 -22.170   4.343  1.00  0.00    +0.414 C 
ATOM      3  N   UNL     1      17.381 -21.248   3.451  1.00  0.00    -0.257 N 
ATOM      4  C   UNL     1      17.764 -21.155   2.133  1.00  0.00    +0.263 C 
ATOM      5  O   UNL     1      18.556 -21.909   1.582  1.00  0.00    -0.269 OA
ATOM      6  H   UNL     1      16.639 -20.676   3.809  1.00  0.00    +0.176 HD
ENDROOT
BRANCH   2   7
ATOM      7  O   UNL     1      17.139 -22.018   5.497  1.00  0.00    -0.449 OA
BRANCH   7   8
ATOM      8  C   UNL     1      15.708 -21.960   5.355  1.00  0.00    +0.238 C 
BRANCH   8   9
ATOM      9  C   UNL     1      15.141 -20.682   5.990  1.00  0.00    +0.027 C 
ATOM     10  C   UNL     1      13.887 -20.223   5.233  1.00  0.00    +0.007 C 
ATOM     11  C   UNL     1      16.194 -19.563   6.034  1.00  0.00    +0.007 C 
ATOM     12  C   UNL     1      13.320 -18.927   5.808  1.00  0.00    +0.000 C 
ATOM     13  C   UNL     1      15.620 -18.267   6.603  1.00  0.00    +0.000 C 
ATOM     14  C   UNL     1      14.372 -17.822   5.848  1.00  0.00    +0.000 C 
ENDBRANCH   8   9
ENDBRANCH   7   8
ENDBRANCH   2   7
BRANCH   4  15
ATOM     15  C   UNL     1      17.113 -20.066   1.380  1.00  0.00    +0.075 A 
ATOM     16  C   UNL     1      16.106 -19.148   1.853  1.00  0.00    +0.028 A 
ATOM     17  C   UNL     1      17.436 -19.785   0.055  1.00  0.00    +0.108 A 
ATOM     18  C   UNL     1      15.703 -18.252   0.888  1.00  0.00    +0.068 A 
ATOM     19  S   UNL     1      16.528 -18.497  -0.579  1.00  0.00    -0.126 S 
BRANCH  17  20
ATOM     20  N   UNL     1      18.381 -20.444  -0.714  1.00  0.00    -0.311 N 
ATOM     21  C   UNL     1      18.192 -21.471  -1.628  1.00  0.00    +0.285 C 
ATOM     22  O   UNL     1      17.116 -21.992  -1.907  1.00  0.00    -0.266 OA
ATOM     23  H   UNL     1      19.350 -20.125  -0.609  1.00  0.00    +0.171 HD
BRANCH  21  24
ATOM     24  C   UNL     1      19.459 -21.879  -2.240  1.00  0.00    +0.182 A 
ATOM     25  N   UNL     1      20.037 -21.182  -3.199  1.00  0.00    -0.231 NA
ATOM     26  S   UNL     1      20.274 -23.298  -1.743  1.00  0.00    -0.109 S 
ATOM     27  C   UNL     1      21.213 -21.806  -3.581  1.00  0.00    +0.082 A 
ATOM     28  C   UNL     1      21.516 -22.985  -2.895  1.00  0.00    +0.055 A 
ATOM     29  C   UNL     1      22.100 -21.355  -4.579  1.00  0.00    +0.030 A 
ATOM     30  C   UNL     1      22.676 -23.727  -3.173  1.00  0.00    +0.021 A 
ATOM     31  C   UNL     1      23.257 -22.086  -4.863  1.00  0.00    +0.002 A 
ATOM     32  C   UNL     1      23.539 -23.258  -4.167  1.00  0.00    +0.002 A 
ENDBRANCH  21  24
ENDBRANCH  17  20
ENDBRANCH   4  15
TORSDOF 6
ENDMDL
MODEL 8
REMARK VINA RESULT:    -8.151      3.736      8.111
REMARK INTER + INTRA:         -12.257
REMARK INTER:                 -11.216
REMARK INTRA:                  -1.042
REMARK UNBOUND:                -1.246
REMARK SMILES O=C(NC(=O)c1ccsc1NC(=O)c1nc2ccccc2s1)OCC1CCCCC1
REMARK SMILES IDX 1 1 2 2 3 3 4 4 5 5 23 7 24 8 25 9 26 10 30 11 27 12 29 13
REMARK SMILES IDX 28 14 6 15 7 16 10 17 8 18 9 19 11 20 12 21 13 22 14 24
REMARK SMILES IDX 15 25 22 26 16 27 21 28 17 29 20 30 18 31 19 32
REMARK H PARENT 3 6 11 23
ROOT
ATOM      1  O   UNL     1      17.623 -22.035  -2.418  1.00  0.00    -0.224 OA
ATOM      2  C   UNL     1      18.788 -21.999  -2.063  1.00  0.00    +0.414 C 
ATOM      3  N   UNL     1      19.363 -22.641  -1.006  1.00  0.00    -0.257 N 
ATOM      4  C   UNL     1      18.741 -23.573  -0.208  1.00  0.00    +0.263 C 
ATOM      5  O   UNL     1      17.591 -23.967  -0.362  1.00  0.00    -0.269 OA
ATOM      6  H   UNL     1      20.343 -22.450  -0.901  1.00  0.00    +0.176 HD
ENDROOT
BRANCH   2   7
ATOM      7  O   UNL     1      19.754 -21.256  -2.670  1.00  0.00    -0.449 OA
BRANCH   7   8
ATOM      8  C   UNL     1      20.742 -21.996  -3.410  1.00  0.00    +0.238 C 
BRANCH   8   9
ATOM      9  C   UNL     1      20.553 -21.814  -4.922  1.00  0.00    +0.027 C 
ATOM     10  C   UNL     1      20.336 -23.174  -5.600  1.00  0.00    +0.007 C 
ATOM     11  C   UNL     1      21.745 -21.074  -5.551  1.00  0.00    +0.007 C 
ATOM     12  C   UNL     1      20.190 -23.037  -7.114  1.00  0.00    +0.000 C 
ATOM     13  C   UNL     1      21.598 -20.945  -7.065  1.00  0.00    +0.000 C 
ATOM     14  C   UNL     1      21.377 -22.301  -7.728  1.00  0.00    +0.000 C 
ENDBRANCH   8   9
ENDBRANCH   7   8
ENDBRANCH   2   7
BRANCH   4  15
ATOM     15  C   UNL     1      19.586 -24.119   0.871  1.00  0.00    +0.075 A 
ATOM     16  C   UNL     1      20.704 -25.022   0.742  1.00  0.00    +0.028 A 
ATOM     17  C   UNL     1      19.389 -23.784   2.208  1.00  0.00    +0.108 A 
ATOM     18  C   UNL     1      21.274 -25.343   1.954  1.00  0.00    +0.068 A 
ATOM     19  S   UNL     1      20.486 -24.564   3.244  1.00  0.00    -0.126 S 
BRANCH  17  20
ATOM     20  N   UNL     1      18.425 -22.921   2.702  1.00  0.00    -0.311 N 
ATOM     21  C   UNL     1      18.274 -21.562   2.464  1.00  0.00    +0.285 C 
ATOM     22  O   UNL     1      19.006 -20.873   1.759  1.00  0.00    -0.266 OA
ATOM     23  H   UNL     1      17.717 -23.339   3.314  1.00  0.00    +0.171 HD
BRANCH  21  24
ATOM     24  C   UNL     1      17.110 -21.023   3.172  1.00  0.00    +0.182 A 
ATOM     25  N   UNL     1      16.584 -19.849   2.877  1.00  0.00    -0.231 NA
ATOM     26  S   UNL     1      16.353 -21.892   4.435  1.00  0.00    -0.109 S 
ATOM     27  C   UNL     1      15.503 -19.605   3.707  1.00  0.00    +0.082 A 
ATOM     28  C   UNL     1      15.217 -20.612   4.632  1.00  0.00    +0.055 A 
ATOM     29  C   UNL     1      14.693 -18.451   3.688  1.00  0.00    +0.030 A 
ATOM     30  C   UNL     1      14.149 -20.505   5.538  1.00  0.00    +0.021 A 
ATOM     31  C   UNL     1      13.627 -18.335   4.586  1.00  0.00    +0.002 A 
ATOM     32  C   UNL     1      13.361 -19.351   5.499  1.00  0.00    +0.002 A 
ENDBRANCH  21  24
ENDBRANCH  17  20
ENDBRANCH   4  15
TORSDOF 6
ENDMDL
MODEL 9
REMARK VINA RESULT:    -8.095      3.601      6.745
REMARK INTER + INTRA:         -12.181
REMARK INTER:                 -11.510
REMARK INTRA:                  -0.671
REMARK UNBOUND:                -1.246
REMARK SMILES O=C(NC(=O)c1ccsc1NC(=O)c1nc2ccccc2s1)OCC1CCCCC1
REMARK SMILES IDX 1 1 2 2 3 3 4 4 5 5 23 7 24 8 25 9 26 10 30 11 27 12 29 13
REMARK SMILES IDX 28 14 6 15 7 16 10 17 8 18 9 19 11 20 12 21 13 22 14 24
REMARK SMILES IDX 15 25 22 26 16 27 21 28 17 29 20 30 18 31 19 32
REMARK H PARENT 3 6 11 23
ROOT
ATOM      1  O   UNL     1      19.783 -23.497   4.525  1.00  0.00    -0.224 OA
ATOM      2  C   UNL     1      20.210 -23.773   3.418  1.00  0.00    +0.414 C 
ATOM      3  N   UNL     1      19.866 -23.214   2.223  1.00  0.00    -0.257 N 
ATOM      4  C   UNL     1      19.049 -22.119   2.063  1.00  0.00    +0.263 C 
ATOM      5  O   UNL     1      18.543 -21.486   2.982  1.00  0.00    -0.269 OA
ATOM      6  H   UNL     1      20.345 -23.614   1.436  1.00  0.00    +0.176 HD
ENDROOT
BRANCH   2   7
ATOM      7  O   UNL     1      21.125 -24.750   3.169  1.00  0.00    -0.449 OA
BRANCH   7   8
ATOM      8  C   UNL     1      22.304 -24.729   3.995  1.00  0.00    +0.238 C 
BRANCH   8   9
ATOM      9  C   UNL     1      23.103 -23.435   3.786  1.00  0.00    +0.027 C 
ATOM     10  C   UNL     1      23.603 -23.345   2.338  1.00  0.00    +0.007 C 
ATOM     11  C   UNL     1      24.275 -23.334   4.776  1.00  0.00    +0.007 C 
ATOM     12  C   UNL     1      24.442 -22.091   2.104  1.00  0.00    +0.000 C 
ATOM     13  C   UNL     1      25.115 -22.082   4.534  1.00  0.00    +0.000 C 
ATOM     14  C   UNL     1      25.602 -21.999   3.091  1.00  0.00    +0.000 C 
ENDBRANCH   8   9
ENDBRANCH   7   8
ENDBRANCH   2   7
BRANCH   4  15
ATOM     15  C   UNL     1      18.834 -21.713   0.662  1.00  0.00    +0.075 A 
ATOM     16  C   UNL     1      19.544 -22.171  -0.507  1.00  0.00    +0.028 A 
ATOM     17  C   UNL     1      17.847 -20.799   0.298  1.00  0.00    +0.108 A 
ATOM     18  C   UNL     1      19.097 -21.584  -1.669  1.00  0.00    +0.068 A 
ATOM     19  S   UNL     1      17.825 -20.494  -1.373  1.00  0.00    -0.126 S 
BRANCH  17  20
ATOM     20  N   UNL     1      16.956 -20.175   1.153  1.00  0.00    -0.311 N 
ATOM     21  C   UNL     1      16.421 -18.896   1.067  1.00  0.00    +0.285 C 
ATOM     22  O   UNL     1      16.670 -18.074   0.191  1.00  0.00    -0.266 OA
ATOM     23  H   UNL     1      16.632 -20.731   1.952  1.00  0.00    +0.171 HD
BRANCH  21  24
ATOM     24  C   UNL     1      15.500 -18.629   2.175  1.00  0.00    +0.182 A 
ATOM     25  N   UNL     1      14.580 -17.684   2.117  1.00  0.00    -0.231 NA
ATOM     26  S   UNL     1      15.561 -19.533   3.625  1.00  0.00    -0.109 S 
ATOM     27  C   UNL     1      13.864 -17.662   3.302  1.00  0.00    +0.082 A 
ATOM     28  C   UNL     1      14.255 -18.604   4.257  1.00  0.00    +0.055 A 
ATOM     29  C   UNL     1      12.803 -16.786   3.608  1.00  0.00    +0.030 A 
ATOM     30  C   UNL     1      13.621 -18.700   5.506  1.00  0.00    +0.021 A 
ATOM     31  C   UNL     1      12.165 -16.874   4.849  1.00  0.00    +0.002 A 
ATOM     32  C   UNL     1      12.570 -17.820   5.785  1.00  0.00    +0.002 A 
ENDBRANCH  21  24
ENDBRANCH  17  20
ENDBRANCH   4  15
TORSDOF 6
ENDMDL
