MODEL 1
REMARK VINA RESULT:    -9.176      0.000      0.000
REMARK INTER + INTRA:         -11.153
REMARK INTER:                 -10.785
REMARK INTRA:                  -0.368
REMARK UNBOUND:                -0.368
REMARK SMILES O=c1nc(N2CCN(CC3CCCCC3)CC2)sc2c(Cl)cc(C(F)(F)F)cc12
REMARK SMILES IDX 1 1 2 2 3 3 4 4 5 5 6 6 7 7 8 8 16 9 17 10 18 11 19 12 20 13
REMARK SMILES IDX 21 14 22 15 23 16 28 17 29 18 24 19 25 20 26 21 27 22 9 23
REMARK SMILES IDX 10 24 11 25 15 26 12 27 14 28 13 29
REMARK H PARENT
ROOT
ATOM      1  O   UNL     1      16.275 -19.544   0.949  1.00  0.00    -0.267 OA
ATOM      2  C   UNL     1      16.636 -20.108   1.976  1.00  0.00    +0.281 C 
ATOM      3  N   UNL     1      17.813 -20.795   2.060  1.00  0.00    -0.181 NA
ATOM      4  C   UNL     1      17.989 -21.819   2.837  1.00  0.00    +0.189 C 
ATOM      5  N   UNL     1      19.201 -22.501   2.853  1.00  0.00    -0.345 N 
ATOM      6  C   UNL     1      19.688 -23.237   4.041  1.00  0.00    +0.134 C 
ATOM      7  C   UNL     1      20.776 -24.273   3.673  1.00  0.00    +0.106 C 
ATOM      8  N   UNL     1      21.891 -23.671   2.923  1.00  0.00    -0.300 NA
ATOM      9  C   UNL     1      21.367 -23.033   1.709  1.00  0.00    +0.106 C 
ATOM     10  C   UNL     1      20.311 -21.956   2.033  1.00  0.00    +0.134 C 
ATOM     11  S   UNL     1      16.700 -22.424   3.874  1.00  0.00    -0.097 SA
ATOM     12  C   UNL     1      15.772 -20.938   4.150  1.00  0.00    +0.062 A 
ATOM     13  C   UNL     1      14.960 -20.744   5.279  1.00  0.00    +0.059 A 
ATOM     14 Cl   UNL     1      14.846 -21.915   6.550  1.00  0.00    -0.083 Cl
ATOM     15  C   UNL     1      14.196 -19.577   5.425  1.00  0.00    +0.035 A 
ATOM     16  C   UNL     1      14.221 -18.577   4.446  1.00  0.00    +0.058 A 
ATOM     17  C   UNL     1      15.022 -18.773   3.315  1.00  0.00    +0.028 A 
ATOM     18  C   UNL     1      15.798 -19.937   3.182  1.00  0.00    +0.061 A 
ENDROOT
BRANCH  16  19
ATOM     19  C   UNL     1      13.372 -17.336   4.587  1.00  0.00    +0.416 C 
ATOM     20  F   UNL     1      13.192 -16.699   3.400  1.00  0.00    -0.166 F 
ATOM     21  F   UNL     1      12.125 -17.603   5.065  1.00  0.00    -0.166 F 
ATOM     22  F   UNL     1      13.908 -16.418   5.435  1.00  0.00    -0.166 F 
ENDBRANCH  16  19
BRANCH   8  23
ATOM     23  C   UNL     1      23.009 -24.598   2.708  1.00  0.00    +0.088 C 
BRANCH  23  24
ATOM     24  C   UNL     1      24.156 -24.654   3.748  1.00  0.00    +0.003 C 
ATOM     25  C   UNL     1      24.037 -25.952   4.582  1.00  0.00    +0.005 C 
ATOM     26  C   UNL     1      24.175 -23.450   4.701  1.00  0.00    +0.005 C 
ATOM     27  C   UNL     1      24.769 -25.902   5.926  1.00  0.00    +0.000 C 
ATOM     28  C   UNL     1      25.396 -23.479   5.627  1.00  0.00    +0.000 C 
ATOM     29  C   UNL     1      25.903 -24.889   5.928  1.00  0.00    +0.000 C 
ENDBRANCH  23  24
ENDBRANCH   8  23
TORSDOF 3
ENDMDL
MODEL 2
REMARK VINA RESULT:    -9.119      5.151      7.090
REMARK INTER + INTRA:         -11.086
REMARK INTER:                 -10.722
REMARK INTRA:                  -0.364
REMARK UNBOUND:                -0.368
REMARK SMILES O=c1nc(N2CCN(CC3CCCCC3)CC2)sc2c(Cl)cc(C(F)(F)F)cc12
REMARK SMILES IDX 1 1 2 2 3 3 4 4 5 5 6 6 7 7 8 8 16 9 17 10 18 11 19 12 20 13
REMARK SMILES IDX 21 14 22 15 23 16 28 17 29 18 24 19 25 20 26 21 27 22 9 23
REMARK SMILES IDX 10 24 11 25 15 26 12 27 14 28 13 29
REMARK H PARENT
ROOT
ATOM      1  O   UNL     1      19.093 -22.950   3.897  1.00  0.00    -0.267 OA
ATOM      2  C   UNL     1      18.588 -22.417   2.915  1.00  0.00    +0.281 C 
ATOM      3  N   UNL     1      18.964 -22.722   1.639  1.00  0.00    -0.181 NA
ATOM      4  C   UNL     1      18.916 -21.875   0.658  1.00  0.00    +0.189 C 
ATOM      5  N   UNL     1      19.348 -22.234  -0.615  1.00  0.00    -0.345 N 
ATOM      6  C   UNL     1      18.813 -21.611  -1.846  1.00  0.00    +0.134 C 
ATOM      7  C   UNL     1      19.756 -21.817  -3.054  1.00  0.00    +0.106 C 
ATOM      8  N   UNL     1      20.082 -23.235  -3.273  1.00  0.00    -0.300 NA
ATOM      9  C   UNL     1      20.693 -23.783  -2.055  1.00  0.00    +0.106 C 
ATOM     10  C   UNL     1      19.764 -23.641  -0.831  1.00  0.00    +0.134 C 
ATOM     11  S   UNL     1      18.347 -20.224   0.889  1.00  0.00    -0.097 SA
ATOM     12  C   UNL     1      17.232 -20.447   2.251  1.00  0.00    +0.062 A 
ATOM     13  C   UNL     1      16.156 -19.581   2.504  1.00  0.00    +0.059 A 
ATOM     14 Cl   UNL     1      15.772 -18.251   1.463  1.00  0.00    -0.083 Cl
ATOM     15  C   UNL     1      15.337 -19.761   3.628  1.00  0.00    +0.035 A 
ATOM     16  C   UNL     1      15.574 -20.806   4.528  1.00  0.00    +0.058 A 
ATOM     17  C   UNL     1      16.653 -21.664   4.282  1.00  0.00    +0.028 A 
ATOM     18  C   UNL     1      17.460 -21.489   3.145  1.00  0.00    +0.061 A 
ENDROOT
BRANCH  16  19
ATOM     19  C   UNL     1      14.713 -20.979   5.757  1.00  0.00    +0.416 C 
ATOM     20  F   UNL     1      13.966 -19.874   6.019  1.00  0.00    -0.166 F 
ATOM     21  F   UNL     1      13.833 -22.012   5.643  1.00  0.00    -0.166 F 
ATOM     22  F   UNL     1      15.436 -21.227   6.882  1.00  0.00    -0.166 F 
ENDBRANCH  16  19
BRANCH   8  23
ATOM     23  C   UNL     1      20.839 -23.470  -4.510  1.00  0.00    +0.088 C 
BRANCH  23  24
ATOM     24  C   UNL     1      20.945 -22.334  -5.558  1.00  0.00    +0.003 C 
ATOM     25  C   UNL     1      20.440 -22.843  -6.928  1.00  0.00    +0.005 C 
ATOM     26  C   UNL     1      22.371 -21.787  -5.724  1.00  0.00    +0.005 C 
ATOM     27  C   UNL     1      20.937 -22.024  -8.123  1.00  0.00    +0.000 C 
ATOM     28  C   UNL     1      22.411 -20.583  -6.670  1.00  0.00    +0.000 C 
ATOM     29  C   UNL     1      21.312 -20.603  -7.733  1.00  0.00    +0.000 C 
ENDBRANCH  23  24
ENDBRANCH   8  23
TORSDOF 3
ENDMDL
MODEL 3
REMARK VINA RESULT:    -9.022      4.468      6.389
REMARK INTER + INTRA:         -10.973
REMARK INTER:                 -10.609
REMARK INTRA:                  -0.364
REMARK UNBOUND:                -0.368
REMARK SMILES O=c1nc(N2CCN(CC3CCCCC3)CC2)sc2c(Cl)cc(C(F)(F)F)cc12
REMARK SMILES IDX 1 1 2 2 3 3 4 4 5 5 6 6 7 7 8 8 16 9 17 10 18 11 19 12 20 13
REMARK SMILES IDX 21 14 22 15 23 16 28 17 29 18 24 19 25 20 26 21 27 22 9 23
REMARK SMILES IDX 10 24 11 25 15 26 12 27 14 28 13 29
REMARK H PARENT
ROOT
ATOM      1  O   UNL     1      14.956 -18.723   1.009  1.00  0.00    -0.267 OA
ATOM      2  C   UNL     1      15.859 -19.483   1.340  1.00  0.00    +0.281 C 
ATOM      3  N   UNL     1      16.813 -19.916   0.465  1.00  0.00    -0.181 NA
ATOM      4  C   UNL     1      17.401 -21.068   0.560  1.00  0.00    +0.189 C 
ATOM      5  N   UNL     1      18.341 -21.468  -0.385  1.00  0.00    -0.345 N 
ATOM      6  C   UNL     1      19.436 -22.412  -0.072  1.00  0.00    +0.134 C 
ATOM      7  C   UNL     1      20.029 -23.053  -1.348  1.00  0.00    +0.106 C 
ATOM      8  N   UNL     1      20.458 -22.045  -2.332  1.00  0.00    -0.300 NA
ATOM      9  C   UNL     1      19.314 -21.192  -2.678  1.00  0.00    +0.106 C 
ATOM     10  C   UNL     1      18.720 -20.493  -1.437  1.00  0.00    +0.134 C 
ATOM     11  S   UNL     1      17.013 -22.200   1.852  1.00  0.00    -0.097 SA
ATOM     12  C   UNL     1      16.502 -21.079   3.130  1.00  0.00    +0.062 A 
ATOM     13  C   UNL     1      16.571 -21.398   4.495  1.00  0.00    +0.059 A 
ATOM     14 Cl   UNL     1      17.232 -22.893   5.066  1.00  0.00    -0.083 Cl
ATOM     15  C   UNL     1      16.098 -20.505   5.467  1.00  0.00    +0.035 A 
ATOM     16  C   UNL     1      15.541 -19.273   5.100  1.00  0.00    +0.058 A 
ATOM     17  C   UNL     1      15.463 -18.959   3.738  1.00  0.00    +0.028 A 
ATOM     18  C   UNL     1      15.953 -19.852   2.769  1.00  0.00    +0.061 A 
ENDROOT
BRANCH  16  19
ATOM     19  C   UNL     1      15.000 -18.327   6.145  1.00  0.00    +0.416 C 
ATOM     20  F   UNL     1      14.902 -17.053   5.682  1.00  0.00    -0.166 F 
ATOM     21  F   UNL     1      13.754 -18.671   6.573  1.00  0.00    -0.166 F 
ATOM     22  F   UNL     1      15.775 -18.268   7.261  1.00  0.00    -0.166 F 
ENDBRANCH  16  19
BRANCH   8  23
ATOM     23  C   UNL     1      21.174 -22.623  -3.477  1.00  0.00    +0.088 C 
BRANCH  23  24
ATOM     24  C   UNL     1      20.949 -22.026  -4.889  1.00  0.00    +0.003 C 
ATOM     25  C   UNL     1      20.343 -23.105  -5.818  1.00  0.00    +0.005 C 
ATOM     26  C   UNL     1      22.231 -21.478  -5.532  1.00  0.00    +0.005 C 
ATOM     27  C   UNL     1      20.531 -22.823  -7.311  1.00  0.00    +0.000 C 
ATOM     28  C   UNL     1      21.945 -20.783  -6.866  1.00  0.00    +0.000 C 
ATOM     29  C   UNL     1      20.724 -21.343  -7.598  1.00  0.00    +0.000 C 
ENDBRANCH  23  24
ENDBRANCH   8  23
TORSDOF 3
ENDMDL
MODEL 4
REMARK VINA RESULT:    -8.977      0.876      1.320
REMARK INTER + INTRA:         -10.920
REMARK INTER:                 -10.544
REMARK INTRA:                  -0.376
REMARK UNBOUND:                -0.368
REMARK SMILES O=c1nc(N2CCN(CC3CCCCC3)CC2)sc2c(Cl)cc(C(F)(F)F)cc12
REMARK SMILES IDX 1 1 2 2 3 3 4 4 5 5 6 6 7 7 8 8 16 9 17 10 18 11 19 12 20 13
REMARK SMILES IDX 21 14 22 15 23 16 28 17 29 18 24 19 25 20 26 21 27 22 9 23
REMARK SMILES IDX 10 24 11 25 15 26 12 27 14 28 13 29
REMARK H PARENT
ROOT
ATOM      1  O   UNL     1      16.116 -19.322   0.843  1.00  0.00    -0.267 OA
ATOM      2  C   UNL     1      16.517 -19.895   1.850  1.00  0.00    +0.281 C 
ATOM      3  N   UNL     1      17.716 -20.546   1.897  1.00  0.00    -0.181 NA
ATOM      4  C   UNL     1      17.939 -21.579   2.649  1.00  0.00    +0.189 C 
ATOM      5  N   UNL     1      19.173 -22.223   2.626  1.00  0.00    -0.345 N 
ATOM      6  C   UNL     1      19.707 -22.967   3.788  1.00  0.00    +0.134 C 
ATOM      7  C   UNL     1      20.818 -23.960   3.377  1.00  0.00    +0.106 C 
ATOM      8  N   UNL     1      21.898 -23.309   2.617  1.00  0.00    -0.300 NA
ATOM      9  C   UNL     1      21.329 -22.664   1.427  1.00  0.00    +0.106 C 
ATOM     10  C   UNL     1      20.247 -21.627   1.795  1.00  0.00    +0.134 C 
ATOM     11  S   UNL     1      16.692 -22.245   3.699  1.00  0.00    -0.097 SA
ATOM     12  C   UNL     1      15.725 -20.794   4.024  1.00  0.00    +0.062 A 
ATOM     13  C   UNL     1      14.931 -20.649   5.174  1.00  0.00    +0.059 A 
ATOM     14 Cl   UNL     1      14.881 -21.848   6.422  1.00  0.00    -0.083 Cl
ATOM     15  C   UNL     1      14.135 -19.509   5.359  1.00  0.00    +0.035 A 
ATOM     16  C   UNL     1      14.108 -18.489   4.400  1.00  0.00    +0.058 A 
ATOM     17  C   UNL     1      14.891 -18.638   3.249  1.00  0.00    +0.028 A 
ATOM     18  C   UNL     1      15.699 -19.775   3.077  1.00  0.00    +0.061 A 
ENDROOT
BRANCH  16  19
ATOM     19  C   UNL     1      13.224 -17.279   4.584  1.00  0.00    +0.416 C 
ATOM     20  F   UNL     1      13.791 -16.347   5.394  1.00  0.00    -0.166 F 
ATOM     21  F   UNL     1      12.950 -16.644   3.410  1.00  0.00    -0.166 F 
ATOM     22  F   UNL     1      12.018 -17.581   5.135  1.00  0.00    -0.166 F 
ENDBRANCH  16  19
BRANCH   8  23
ATOM     23  C   UNL     1      23.040 -24.196   2.360  1.00  0.00    +0.088 C 
BRANCH  23  24
ATOM     24  C   UNL     1      24.425 -23.836   2.953  1.00  0.00    +0.003 C 
ATOM     25  C   UNL     1      24.400 -24.029   4.487  1.00  0.00    +0.005 C 
ATOM     26  C   UNL     1      24.870 -22.400   2.639  1.00  0.00    +0.005 C 
ATOM     27  C   UNL     1      25.494 -23.261   5.234  1.00  0.00    +0.000 C 
ATOM     28  C   UNL     1      26.295 -22.127   3.129  1.00  0.00    +0.000 C 
ATOM     29  C   UNL     1      26.693 -22.959   4.349  1.00  0.00    +0.000 C 
ENDBRANCH  23  24
ENDBRANCH   8  23
TORSDOF 3
ENDMDL
MODEL 5
REMARK VINA RESULT:    -8.964      3.758      5.028
REMARK INTER + INTRA:         -10.904
REMARK INTER:                 -10.593
REMARK INTRA:                  -0.311
REMARK UNBOUND:                -0.368
REMARK SMILES O=c1nc(N2CCN(CC3CCCCC3)CC2)sc2c(Cl)cc(C(F)(F)F)cc12
REMARK SMILES IDX 1 1 2 2 3 3 4 4 5 5 6 6 7 7 8 8 16 9 17 10 18 11 19 12 20 13
REMARK SMILES IDX 21 14 22 15 23 16 28 17 29 18 24 19 25 20 26 21 27 22 9 23
REMARK SMILES IDX 10 24 11 25 15 26 12 27 14 28 13 29
REMARK H PARENT
ROOT
ATOM      1  O   UNL     1      16.612 -20.863   6.298  1.00  0.00    -0.267 OA
ATOM      2  C   UNL     1      16.503 -20.910   5.078  1.00  0.00    +0.281 C 
ATOM      3  N   UNL     1      17.027 -21.927   4.333  1.00  0.00    -0.181 NA
ATOM      4  C   UNL     1      17.438 -21.780   3.112  1.00  0.00    +0.189 C 
ATOM      5  N   UNL     1      17.996 -22.847   2.415  1.00  0.00    -0.345 N 
ATOM      6  C   UNL     1      17.940 -22.955   0.941  1.00  0.00    +0.134 C 
ATOM      7  C   UNL     1      19.006 -23.932   0.392  1.00  0.00    +0.106 C 
ATOM      8  N   UNL     1      18.930 -25.257   1.028  1.00  0.00    -0.300 NA
ATOM      9  C   UNL     1      19.084 -25.104   2.480  1.00  0.00    +0.106 C 
ATOM     10  C   UNL     1      18.008 -24.174   3.078  1.00  0.00    +0.134 C 
ATOM     11  S   UNL     1      17.355 -20.225   2.290  1.00  0.00    -0.097 SA
ATOM     12  C   UNL     1      15.968 -19.489   3.115  1.00  0.00    +0.062 A 
ATOM     13  C   UNL     1      15.172 -18.492   2.527  1.00  0.00    +0.059 A 
ATOM     14 Cl   UNL     1      15.428 -17.938   0.906  1.00  0.00    -0.083 Cl
ATOM     15  C   UNL     1      14.123 -17.895   3.240  1.00  0.00    +0.035 A 
ATOM     16  C   UNL     1      13.845 -18.275   4.559  1.00  0.00    +0.058 A 
ATOM     17  C   UNL     1      14.644 -19.262   5.149  1.00  0.00    +0.028 A 
ATOM     18  C   UNL     1      15.683 -19.868   4.424  1.00  0.00    +0.061 A 
ENDROOT
BRANCH  16  19
ATOM     19  C   UNL     1      12.737 -17.608   5.338  1.00  0.00    +0.416 C 
ATOM     20  F   UNL     1      11.582 -17.529   4.625  1.00  0.00    -0.166 F 
ATOM     21  F   UNL     1      12.427 -18.271   6.487  1.00  0.00    -0.166 F 
ATOM     22  F   UNL     1      13.042 -16.336   5.713  1.00  0.00    -0.166 F 
ENDBRANCH  16  19
BRANCH   8  23
ATOM     23  C   UNL     1      19.821 -26.247   0.408  1.00  0.00    +0.088 C 
BRANCH  23  24
ATOM     24  C   UNL     1      19.426 -27.745   0.440  1.00  0.00    +0.003 C 
ATOM     25  C   UNL     1      19.861 -28.425  -0.879  1.00  0.00    +0.005 C 
ATOM     26  C   UNL     1      17.922 -27.976   0.648  1.00  0.00    +0.005 C 
ATOM     27  C   UNL     1      19.119 -29.728  -1.187  1.00  0.00    +0.000 C 
ATOM     28  C   UNL     1      17.593 -29.464   0.803  1.00  0.00    +0.000 C 
ATOM     29  C   UNL     1      18.565 -30.386   0.067  1.00  0.00    +0.000 C 
ENDBRANCH  23  24
ENDBRANCH   8  23
TORSDOF 3
ENDMDL
MODEL 6
REMARK VINA RESULT:    -8.790      2.035      2.664
REMARK INTER + INTRA:         -10.699
REMARK INTER:                 -10.436
REMARK INTRA:                  -0.264
REMARK UNBOUND:                -0.368
REMARK SMILES O=c1nc(N2CCN(CC3CCCCC3)CC2)sc2c(Cl)cc(C(F)(F)F)cc12
REMARK SMILES IDX 1 1 2 2 3 3 4 4 5 5 6 6 7 7 8 8 16 9 17 10 18 11 19 12 20 13
REMARK SMILES IDX 21 14 22 15 23 16 28 17 29 18 24 19 25 20 26 21 27 22 9 23
REMARK SMILES IDX 10 24 11 25 15 26 12 27 14 28 13 29
REMARK H PARENT
ROOT
ATOM      1  O   UNL     1      15.748 -19.217   0.964  1.00  0.00    -0.267 OA
ATOM      2  C   UNL     1      16.268 -19.829   1.891  1.00  0.00    +0.281 C 
ATOM      3  N   UNL     1      17.458 -20.486   1.761  1.00  0.00    -0.181 NA
ATOM      4  C   UNL     1      17.765 -21.548   2.440  1.00  0.00    +0.189 C 
ATOM      5  N   UNL     1      18.980 -22.195   2.237  1.00  0.00    -0.345 N 
ATOM      6  C   UNL     1      19.651 -22.984   3.294  1.00  0.00    +0.134 C 
ATOM      7  C   UNL     1      20.693 -23.966   2.709  1.00  0.00    +0.106 C 
ATOM      8  N   UNL     1      21.673 -23.290   1.844  1.00  0.00    -0.300 NA
ATOM      9  C   UNL     1      20.964 -22.599   0.760  1.00  0.00    +0.106 C 
ATOM     10  C   UNL     1      19.947 -21.572   1.300  1.00  0.00    +0.134 C 
ATOM     11  S   UNL     1      16.655 -22.248   3.614  1.00  0.00    -0.097 SA
ATOM     12  C   UNL     1      15.749 -20.807   4.112  1.00  0.00    +0.062 A 
ATOM     13  C   UNL     1      15.108 -20.702   5.358  1.00  0.00    +0.059 A 
ATOM     14 Cl   UNL     1      15.205 -21.947   6.557  1.00  0.00    -0.083 Cl
ATOM     15  C   UNL     1      14.351 -19.568   5.684  1.00  0.00    +0.035 A 
ATOM     16  C   UNL     1      14.212 -18.512   4.775  1.00  0.00    +0.058 A 
ATOM     17  C   UNL     1      14.842 -18.620   3.529  1.00  0.00    +0.028 A 
ATOM     18  C   UNL     1      15.613 -19.752   3.214  1.00  0.00    +0.061 A 
ENDROOT
BRANCH  16  19
ATOM     19  C   UNL     1      13.369 -17.306   5.114  1.00  0.00    +0.416 C 
ATOM     20  F   UNL     1      12.562 -16.938   4.084  1.00  0.00    -0.166 F 
ATOM     21  F   UNL     1      12.548 -17.520   6.180  1.00  0.00    -0.166 F 
ATOM     22  F   UNL     1      14.110 -16.210   5.427  1.00  0.00    -0.166 F 
ENDBRANCH  16  19
BRANCH   8  23
ATOM     23  C   UNL     1      22.766 -24.171   1.412  1.00  0.00    +0.088 C 
BRANCH  23  24
ATOM     24  C   UNL     1      24.106 -23.544   0.951  1.00  0.00    +0.003 C 
ATOM     25  C   UNL     1      24.302 -22.174   1.641  1.00  0.00    +0.005 C 
ATOM     26  C   UNL     1      24.201 -23.354  -0.570  1.00  0.00    +0.005 C 
ATOM     27  C   UNL     1      25.292 -21.249   0.927  1.00  0.00    +0.000 C 
ATOM     28  C   UNL     1      25.585 -22.855  -0.994  1.00  0.00    +0.000 C 
ATOM     29  C   UNL     1      26.288 -22.019   0.076  1.00  0.00    +0.000 C 
ENDBRANCH  23  24
ENDBRANCH   8  23
TORSDOF 3
ENDMDL
MODEL 7
REMARK VINA RESULT:    -8.432      1.683      2.464
REMARK INTER + INTRA:         -10.279
REMARK INTER:                  -9.881
REMARK INTRA:                  -0.398
REMARK UNBOUND:                -0.368
REMARK SMILES O=c1nc(N2CCN(CC3CCCCC3)CC2)sc2c(Cl)cc(C(F)(F)F)cc12
REMARK SMILES IDX 1 1 2 2 3 3 4 4 5 5 6 6 7 7 8 8 16 9 17 10 18 11 19 12 20 13
REMARK SMILES IDX 21 14 22 15 23 16 28 17 29 18 24 19 25 20 26 21 27 22 9 23
REMARK SMILES IDX 10 24 11 25 15 26 12 27 14 28 13 29
REMARK H PARENT
ROOT
ATOM      1  O   UNL     1      15.965 -19.184   1.097  1.00  0.00    -0.267 OA
ATOM      2  C   UNL     1      16.402 -19.821   2.049  1.00  0.00    +0.281 C 
ATOM      3  N   UNL     1      17.587 -20.496   1.998  1.00  0.00    -0.181 NA
ATOM      4  C   UNL     1      17.825 -21.574   2.679  1.00  0.00    +0.189 C 
ATOM      5  N   UNL     1      19.042 -22.239   2.558  1.00  0.00    -0.345 N 
ATOM      6  C   UNL     1      19.616 -23.057   3.648  1.00  0.00    +0.134 C 
ATOM      7  C   UNL     1      20.684 -24.047   3.127  1.00  0.00    +0.106 C 
ATOM      8  N   UNL     1      21.739 -23.373   2.352  1.00  0.00    -0.300 NA
ATOM      9  C   UNL     1      21.126 -22.651   1.230  1.00  0.00    +0.106 C 
ATOM     10  C   UNL     1      20.087 -21.617   1.709  1.00  0.00    +0.134 C 
ATOM     11  S   UNL     1      16.617 -22.276   3.752  1.00  0.00    -0.097 SA
ATOM     12  C   UNL     1      15.698 -20.828   4.206  1.00  0.00    +0.062 A 
ATOM     13  C   UNL     1      14.965 -20.734   5.400  1.00  0.00    +0.059 A 
ATOM     14 Cl   UNL     1      14.950 -22.001   6.581  1.00  0.00    -0.083 Cl
ATOM     15  C   UNL     1      14.204 -19.592   5.689  1.00  0.00    +0.035 A 
ATOM     16  C   UNL     1      14.152 -18.519   4.791  1.00  0.00    +0.058 A 
ATOM     17  C   UNL     1      14.874 -18.616   3.596  1.00  0.00    +0.028 A 
ATOM     18  C   UNL     1      15.648 -19.756   3.320  1.00  0.00    +0.061 A 
ENDROOT
BRANCH  16  19
ATOM     19  C   UNL     1      13.304 -17.305   5.087  1.00  0.00    +0.416 C 
ATOM     20  F   UNL     1      12.484 -16.986   4.051  1.00  0.00    -0.166 F 
ATOM     21  F   UNL     1      12.496 -17.477   6.170  1.00  0.00    -0.166 F 
ATOM     22  F   UNL     1      14.041 -16.191   5.346  1.00  0.00    -0.166 F 
ENDBRANCH  16  19
BRANCH   8  23
ATOM     23  C   UNL     1      22.848 -24.265   1.988  1.00  0.00    +0.088 C 
BRANCH  23  24
ATOM     24  C   UNL     1      22.578 -25.783   1.837  1.00  0.00    +0.003 C 
ATOM     25  C   UNL     1      23.825 -26.579   2.291  1.00  0.00    +0.005 C 
ATOM     26  C   UNL     1      22.215 -26.200   0.405  1.00  0.00    +0.005 C 
ATOM     27  C   UNL     1      23.888 -28.009   1.744  1.00  0.00    +0.000 C 
ATOM     28  C   UNL     1      21.831 -27.681   0.324  1.00  0.00    +0.000 C 
ATOM     29  C   UNL     1      22.514 -28.549   1.381  1.00  0.00    +0.000 C 
ENDBRANCH  23  24
ENDBRANCH   8  23
TORSDOF 3
ENDMDL
MODEL 8
REMARK VINA RESULT:    -8.380      5.793      7.635
REMARK INTER + INTRA:         -10.218
REMARK INTER:                  -9.873
REMARK INTRA:                  -0.345
REMARK UNBOUND:                -0.368
REMARK SMILES O=c1nc(N2CCN(CC3CCCCC3)CC2)sc2c(Cl)cc(C(F)(F)F)cc12
REMARK SMILES IDX 1 1 2 2 3 3 4 4 5 5 6 6 7 7 8 8 16 9 17 10 18 11 19 12 20 13
REMARK SMILES IDX 21 14 22 15 23 16 28 17 29 18 24 19 25 20 26 21 27 22 9 23
REMARK SMILES IDX 10 24 11 25 15 26 12 27 14 28 13 29
REMARK H PARENT
ROOT
ATOM      1  O   UNL     1      15.828 -20.029   0.076  1.00  0.00    -0.267 OA
ATOM      2  C   UNL     1      16.741 -20.839   0.189  1.00  0.00    +0.281 C 
ATOM      3  N   UNL     1      17.631 -21.087  -0.816  1.00  0.00    -0.181 NA
ATOM      4  C   UNL     1      18.210 -22.235  -0.991  1.00  0.00    +0.189 C 
ATOM      5  N   UNL     1      19.082 -22.438  -2.056  1.00  0.00    -0.345 N 
ATOM      6  C   UNL     1      20.184 -23.424  -2.010  1.00  0.00    +0.134 C 
ATOM      7  C   UNL     1      20.686 -23.796  -3.424  1.00  0.00    +0.106 C 
ATOM      8  N   UNL     1      21.062 -22.612  -4.214  1.00  0.00    -0.300 NA
ATOM      9  C   UNL     1      19.908 -21.709  -4.307  1.00  0.00    +0.106 C 
ATOM     10  C   UNL     1      19.404 -21.272  -2.916  1.00  0.00    +0.134 C 
ATOM     11  S   UNL     1      17.894 -23.602   0.074  1.00  0.00    -0.097 SA
ATOM     12  C   UNL     1      17.480 -22.759   1.579  1.00  0.00    +0.062 A 
ATOM     13  C   UNL     1      17.633 -23.343   2.847  1.00  0.00    +0.059 A 
ATOM     14 Cl   UNL     1      18.313 -24.921   3.064  1.00  0.00    -0.083 Cl
ATOM     15  C   UNL     1      17.235 -22.661   4.006  1.00  0.00    +0.035 A 
ATOM     16  C   UNL     1      16.670 -21.382   3.928  1.00  0.00    +0.058 A 
ATOM     17  C   UNL     1      16.508 -20.804   2.663  1.00  0.00    +0.028 A 
ATOM     18  C   UNL     1      16.924 -21.484   1.507  1.00  0.00    +0.061 A 
ENDROOT
BRANCH  16  19
ATOM     19  C   UNL     1      16.210 -20.664   5.173  1.00  0.00    +0.416 C 
ATOM     20  F   UNL     1      15.833 -19.382   4.918  1.00  0.00    -0.166 F 
ATOM     21  F   UNL     1      15.137 -21.262   5.761  1.00  0.00    -0.166 F 
ATOM     22  F   UNL     1      17.170 -20.594   6.133  1.00  0.00    -0.166 F 
ENDBRANCH  16  19
BRANCH   8  23
ATOM     23  C   UNL     1      21.695 -22.950  -5.495  1.00  0.00    +0.088 C 
BRANCH  23  24
ATOM     24  C   UNL     1      21.633 -21.931  -6.661  1.00  0.00    +0.003 C 
ATOM     25  C   UNL     1      21.754 -22.679  -8.010  1.00  0.00    +0.005 C 
ATOM     26  C   UNL     1      22.725 -20.854  -6.589  1.00  0.00    +0.005 C 
ATOM     27  C   UNL     1      22.199 -21.795  -9.179  1.00  0.00    +0.000 C 
ATOM     28  C   UNL     1      22.550 -19.795  -7.683  1.00  0.00    +0.000 C 
ATOM     29  C   UNL     1      21.875 -20.327  -8.947  1.00  0.00    +0.000 C 
ENDBRANCH  23  24
ENDBRANCH   8  23
TORSDOF 3
ENDMDL
MODEL 9
REMARK VINA RESULT:    -8.183      7.397     10.412
REMARK INTER + INTRA:          -9.987
REMARK INTER:                  -9.632
REMARK INTRA:                  -0.355
REMARK UNBOUND:                -0.368
REMARK SMILES O=c1nc(N2CCN(CC3CCCCC3)CC2)sc2c(Cl)cc(C(F)(F)F)cc12
REMARK SMILES IDX 1 1 2 2 3 3 4 4 5 5 6 6 7 7 8 8 16 9 17 10 18 11 19 12 20 13
REMARK SMILES IDX 21 14 22 15 23 16 28 17 29 18 24 19 25 20 26 21 27 22 9 23
REMARK SMILES IDX 10 24 11 25 15 26 12 27 14 28 13 29
REMARK H PARENT
ROOT
ATOM      1  O   UNL     1      22.470 -24.061  -1.253  1.00  0.00    -0.267 OA
ATOM      2  C   UNL     1      21.756 -23.131  -1.612  1.00  0.00    +0.281 C 
ATOM      3  N   UNL     1      20.866 -22.522  -0.774  1.00  0.00    -0.181 NA
ATOM      4  C   UNL     1      19.758 -21.982  -1.178  1.00  0.00    +0.189 C 
ATOM      5  N   UNL     1      18.874 -21.407  -0.270  1.00  0.00    -0.345 N 
ATOM      6  C   UNL     1      17.954 -20.309  -0.638  1.00  0.00    +0.134 C 
ATOM      7  C   UNL     1      16.782 -20.177   0.363  1.00  0.00    +0.106 C 
ATOM      8  N   UNL     1      17.247 -20.042   1.753  1.00  0.00    -0.300 NA
ATOM      9  C   UNL     1      18.079 -21.201   2.098  1.00  0.00    +0.106 C 
ATOM     10  C   UNL     1      19.290 -21.342   1.152  1.00  0.00    +0.134 C 
ATOM     11  S   UNL     1      19.294 -21.985  -2.877  1.00  0.00    -0.097 SA
ATOM     12  C   UNL     1      20.888 -22.019  -3.655  1.00  0.00    +0.062 A 
ATOM     13  C   UNL     1      21.113 -21.533  -4.953  1.00  0.00    +0.059 A 
ATOM     14 Cl   UNL     1      19.865 -20.785  -5.892  1.00  0.00    -0.083 Cl
ATOM     15  C   UNL     1      22.378 -21.637  -5.551  1.00  0.00    +0.035 A 
ATOM     16  C   UNL     1      23.447 -22.231  -4.869  1.00  0.00    +0.058 A 
ATOM     17  C   UNL     1      23.220 -22.724  -3.579  1.00  0.00    +0.028 A 
ATOM     18  C   UNL     1      21.956 -22.603  -2.979  1.00  0.00    +0.061 A 
ENDROOT
BRANCH  16  19
ATOM     19  C   UNL     1      24.799 -22.373  -5.526  1.00  0.00    +0.416 C 
ATOM     20  F   UNL     1      24.930 -21.566  -6.612  1.00  0.00    -0.166 F 
ATOM     21  F   UNL     1      25.827 -22.055  -4.692  1.00  0.00    -0.166 F 
ATOM     22  F   UNL     1      25.048 -23.638  -5.960  1.00  0.00    -0.166 F 
ENDBRANCH  16  19
BRANCH   8  23
ATOM     23  C   UNL     1      16.161 -19.751   2.699  1.00  0.00    +0.088 C 
BRANCH  23  24
ATOM     24  C   UNL     1      16.181 -20.412   4.100  1.00  0.00    +0.003 C 
ATOM     25  C   UNL     1      15.035 -21.446   4.202  1.00  0.00    +0.005 C 
ATOM     26  C   UNL     1      16.048 -19.405   5.252  1.00  0.00    +0.005 C 
ATOM     27  C   UNL     1      14.633 -21.796   5.638  1.00  0.00    +0.000 C 
ATOM     28  C   UNL     1      16.202 -20.082   6.618  1.00  0.00    +0.000 C 
ATOM     29  C   UNL     1      15.759 -21.545   6.629  1.00  0.00    +0.000 C 
ENDBRANCH  23  24
ENDBRANCH   8  23
TORSDOF 3
ENDMDL
