MODEL 1
REMARK VINA RESULT:    -8.504      0.000      0.000
REMARK INTER + INTRA:         -11.685
REMARK INTER:                 -10.493
REMARK INTRA:                  -1.192
REMARK UNBOUND:                -1.192
REMARK SMILES CC1(c2ccc(C#N)cc2)NC(=O)N(CC(=O)c2ccncc2)C1=O
REMARK SMILES IDX 15 1 14 2 2 3 11 4 24 5 12 6 25 7 13 8 1 9 3 11 4 12 10 13
REMARK SMILES IDX 5 14 9 15 6 16 7 17 8 18 16 19 17 20 18 21 19 22 23 23 20 24
REMARK SMILES IDX 22 25 21 26
REMARK H PARENT 11 10
ROOT
ATOM      1  C   UNL     1      18.359 -23.171   0.038  1.00  0.00    +0.211 C 
ENDROOT
BRANCH   1   2
ATOM      2  N   UNL     1      18.344 -22.838   1.445  1.00  0.00    -0.254 N 
ATOM      3  C   UNL     1      17.648 -22.555   3.690  1.00  0.00    +0.144 C 
ATOM      4  N   UNL     1      18.850 -21.816   3.351  1.00  0.00    -0.319 N 
ATOM      5  C   UNL     1      17.361 -23.215   2.320  1.00  0.00    +0.261 C 
ATOM      6  C   UNL     1      19.210 -21.973   2.034  1.00  0.00    +0.325 C 
ATOM      7  O   UNL     1      16.428 -23.966   2.063  1.00  0.00    -0.271 OA
ATOM      8  O   UNL     1      20.155 -21.407   1.510  1.00  0.00    -0.248 OA
ATOM      9  C   UNL     1      18.010 -23.673   4.675  1.00  0.00    +0.051 C 
ATOM     10  H   UNL     1      19.298 -21.127   3.937  1.00  0.00    +0.166 HD
BRANCH   3  11
ATOM     11  C   UNL     1      16.539 -21.600   4.127  1.00  0.00    -0.013 A 
ATOM     12  C   UNL     1      15.714 -21.928   5.222  1.00  0.00    +0.008 A 
ATOM     13  C   UNL     1      16.287 -20.385   3.467  1.00  0.00    +0.008 A 
ATOM     14  C   UNL     1      14.688 -21.076   5.645  1.00  0.00    +0.020 A 
ATOM     15  C   UNL     1      15.260 -19.530   3.887  1.00  0.00    +0.020 A 
ATOM     16  C   UNL     1      14.459 -19.873   4.979  1.00  0.00    +0.052 A 
ATOM     17  C   UNL     1      13.408 -18.998   5.407  1.00  0.00    +0.099 C 
ATOM     18  N   UNL     1      12.557 -18.285   5.746  1.00  0.00    -0.192 NA
ENDBRANCH   3  11
ENDBRANCH   1   2
BRANCH   1  19
ATOM     19  C   UNL     1      17.163 -22.522  -0.653  1.00  0.00    +0.182 C 
ATOM     20  O   UNL     1      16.263 -23.175  -1.182  1.00  0.00    -0.292 OA
BRANCH  19  21
ATOM     21  C   UNL     1      17.091 -21.031  -0.693  1.00  0.00    +0.022 A 
ATOM     22  C   UNL     1      18.055 -20.249  -1.328  1.00  0.00    +0.032 A 
ATOM     23  C   UNL     1      16.010 -20.405  -0.067  1.00  0.00    +0.032 A 
ATOM     24  C   UNL     1      17.894 -18.874  -1.308  1.00  0.00    +0.111 A 
ATOM     25  C   UNL     1      15.940 -19.024  -0.102  1.00  0.00    +0.111 A 
ATOM     26  N   UNL     1      16.860 -18.247  -0.710  1.00  0.00    -0.265 NA
ENDBRANCH  19  21
ENDBRANCH   1  19
TORSDOF 4
ENDMDL
MODEL 2
REMARK VINA RESULT:    -7.574      1.574      4.521
REMARK INTER + INTRA:         -10.538
REMARK INTER:                  -9.561
REMARK INTRA:                  -0.977
REMARK UNBOUND:                -1.192
REMARK SMILES CC1(c2ccc(C#N)cc2)NC(=O)N(CC(=O)c2ccncc2)C1=O
REMARK SMILES IDX 15 1 14 2 2 3 11 4 24 5 12 6 25 7 13 8 1 9 3 11 4 12 10 13
REMARK SMILES IDX 5 14 9 15 6 16 7 17 8 18 16 19 17 20 18 21 19 22 23 23 20 24
REMARK SMILES IDX 22 25 21 26
REMARK H PARENT 11 10
ROOT
ATOM      1  C   UNL     1      18.297 -23.293  -0.403  1.00  0.00    +0.211 C 
ENDROOT
BRANCH   1   2
ATOM      2  N   UNL     1      17.569 -22.043  -0.386  1.00  0.00    -0.254 N 
ATOM      3  C   UNL     1      16.835 -19.867   0.187  1.00  0.00    +0.144 C 
ATOM      4  N   UNL     1      15.912 -20.592  -0.664  1.00  0.00    -0.319 N 
ATOM      5  C   UNL     1      17.937 -20.943   0.340  1.00  0.00    +0.261 C 
ATOM      6  C   UNL     1      16.348 -21.863  -0.952  1.00  0.00    +0.325 C 
ATOM      7  O   UNL     1      18.974 -20.827   0.981  1.00  0.00    -0.271 OA
ATOM      8  O   UNL     1      15.714 -22.673  -1.606  1.00  0.00    -0.248 OA
ATOM      9  C   UNL     1      17.436 -18.701  -0.607  1.00  0.00    +0.051 C 
ATOM     10  H   UNL     1      14.974 -20.296  -0.897  1.00  0.00    +0.166 HD
BRANCH   3  11
ATOM     11  C   UNL     1      16.172 -19.511   1.517  1.00  0.00    -0.013 A 
ATOM     12  C   UNL     1      15.242 -18.454   1.582  1.00  0.00    +0.008 A 
ATOM     13  C   UNL     1      16.458 -20.198   2.709  1.00  0.00    +0.008 A 
ATOM     14  C   UNL     1      14.620 -18.102   2.786  1.00  0.00    +0.020 A 
ATOM     15  C   UNL     1      15.838 -19.848   3.915  1.00  0.00    +0.020 A 
ATOM     16  C   UNL     1      14.916 -18.800   3.955  1.00  0.00    +0.052 A 
ATOM     17  C   UNL     1      14.282 -18.443   5.190  1.00  0.00    +0.099 C 
ATOM     18  N   UNL     1      13.774 -18.157   6.194  1.00  0.00    -0.192 NA
ENDBRANCH   3  11
ENDBRANCH   1   2
BRANCH   1  19
ATOM     19  C   UNL     1      17.737 -24.224   0.668  1.00  0.00    +0.182 C 
ATOM     20  O   UNL     1      16.901 -25.096   0.424  1.00  0.00    -0.292 OA
BRANCH  19  21
ATOM     21  C   UNL     1      18.220 -24.062   2.071  1.00  0.00    +0.022 A 
ATOM     22  C   UNL     1      17.451 -23.458   3.066  1.00  0.00    +0.032 A 
ATOM     23  C   UNL     1      19.494 -24.539   2.390  1.00  0.00    +0.032 A 
ATOM     24  C   UNL     1      17.993 -23.358   4.336  1.00  0.00    +0.111 A 
ATOM     25  C   UNL     1      19.945 -24.390   3.689  1.00  0.00    +0.111 A 
ATOM     26  N   UNL     1      19.220 -23.809   4.667  1.00  0.00    -0.265 NA
ENDBRANCH  19  21
ENDBRANCH   1  19
TORSDOF 4
ENDMDL
MODEL 3
REMARK VINA RESULT:    -7.504      2.931      7.281
REMARK INTER + INTRA:         -10.451
REMARK INTER:                  -9.947
REMARK INTRA:                  -0.503
REMARK UNBOUND:                -1.192
REMARK SMILES CC1(c2ccc(C#N)cc2)NC(=O)N(CC(=O)c2ccncc2)C1=O
REMARK SMILES IDX 15 1 14 2 2 3 11 4 24 5 12 6 25 7 13 8 1 9 3 11 4 12 10 13
REMARK SMILES IDX 5 14 9 15 6 16 7 17 8 18 16 19 17 20 18 21 19 22 23 23 20 24
REMARK SMILES IDX 22 25 21 26
REMARK H PARENT 11 10
ROOT
ATOM      1  C   UNL     1      16.868 -19.171   1.887  1.00  0.00    +0.211 C 
ENDROOT
BRANCH   1   2
ATOM      2  N   UNL     1      16.734 -19.942   0.671  1.00  0.00    -0.254 N 
ATOM      3  C   UNL     1      16.903 -21.676  -0.931  1.00  0.00    +0.144 C 
ATOM      4  N   UNL     1      16.468 -20.408  -1.483  1.00  0.00    -0.319 N 
ATOM      5  C   UNL     1      17.077 -21.261   0.550  1.00  0.00    +0.261 C 
ATOM      6  C   UNL     1      16.412 -19.413  -0.537  1.00  0.00    +0.325 C 
ATOM      7  O   UNL     1      17.437 -21.991   1.465  1.00  0.00    -0.271 OA
ATOM      8  O   UNL     1      16.123 -18.253  -0.779  1.00  0.00    -0.248 OA
ATOM      9  C   UNL     1      15.741 -22.675  -0.998  1.00  0.00    +0.051 C 
ATOM     10  H   UNL     1      16.373 -20.200  -2.468  1.00  0.00    +0.166 HD
BRANCH   3  11
ATOM     11  C   UNL     1      18.215 -22.119  -1.576  1.00  0.00    -0.013 A 
ATOM     12  C   UNL     1      18.624 -21.559  -2.803  1.00  0.00    +0.008 A 
ATOM     13  C   UNL     1      19.049 -23.090  -0.996  1.00  0.00    +0.008 A 
ATOM     14  C   UNL     1      19.819 -21.945  -3.420  1.00  0.00    +0.020 A 
ATOM     15  C   UNL     1      20.245 -23.480  -1.612  1.00  0.00    +0.020 A 
ATOM     16  C   UNL     1      20.634 -22.907  -2.825  1.00  0.00    +0.052 A 
ATOM     17  C   UNL     1      21.858 -23.307  -3.453  1.00  0.00    +0.099 C 
ATOM     18  N   UNL     1      22.850 -23.638  -3.958  1.00  0.00    -0.192 NA
ENDBRANCH   3  11
ENDBRANCH   1   2
BRANCH   1  19
ATOM     19  C   UNL     1      15.492 -18.962   2.513  1.00  0.00    +0.182 C 
ATOM     20  O   UNL     1      14.654 -18.193   2.041  1.00  0.00    -0.292 OA
BRANCH  19  21
ATOM     21  C   UNL     1      15.157 -19.719   3.755  1.00  0.00    +0.022 A 
ATOM     22  C   UNL     1      15.730 -20.954   4.061  1.00  0.00    +0.032 A 
ATOM     23  C   UNL     1      14.231 -19.160   4.640  1.00  0.00    +0.032 A 
ATOM     24  C   UNL     1      15.350 -21.573   5.240  1.00  0.00    +0.111 A 
ATOM     25  C   UNL     1      13.918 -19.858   5.792  1.00  0.00    +0.111 A 
ATOM     26  N   UNL     1      14.459 -21.053   6.108  1.00  0.00    -0.265 NA
ENDBRANCH  19  21
ENDBRANCH   1  19
TORSDOF 4
ENDMDL
MODEL 4
REMARK VINA RESULT:    -7.313      2.784      7.110
REMARK INTER + INTRA:         -10.216
REMARK INTER:                  -9.755
REMARK INTRA:                  -0.461
REMARK UNBOUND:                -1.192
REMARK SMILES CC1(c2ccc(C#N)cc2)NC(=O)N(CC(=O)c2ccncc2)C1=O
REMARK SMILES IDX 15 1 14 2 2 3 11 4 24 5 12 6 25 7 13 8 1 9 3 11 4 12 10 13
REMARK SMILES IDX 5 14 9 15 6 16 7 17 8 18 16 19 17 20 18 21 19 22 23 23 20 24
REMARK SMILES IDX 22 25 21 26
REMARK H PARENT 11 10
ROOT
ATOM      1  C   UNL     1      16.933 -19.487   2.328  1.00  0.00    +0.211 C 
ENDROOT
BRANCH   1   2
ATOM      2  N   UNL     1      16.737 -20.248   1.114  1.00  0.00    -0.254 N 
ATOM      3  C   UNL     1      16.899 -21.923  -0.551  1.00  0.00    +0.144 C 
ATOM      4  N   UNL     1      16.260 -20.704  -1.007  1.00  0.00    -0.319 N 
ATOM      5  C   UNL     1      17.208 -21.517   0.910  1.00  0.00    +0.261 C 
ATOM      6  C   UNL     1      16.210 -19.739  -0.029  1.00  0.00    +0.325 C 
ATOM      7  O   UNL     1      17.758 -22.216   1.751  1.00  0.00    -0.271 OA
ATOM      8  O   UNL     1      15.765 -18.616  -0.198  1.00  0.00    -0.248 OA
ATOM      9  C   UNL     1      15.858 -23.047  -0.508  1.00  0.00    +0.051 C 
ATOM     10  H   UNL     1      16.020 -20.490  -1.965  1.00  0.00    +0.166 HD
BRANCH   3  11
ATOM     11  C   UNL     1      18.163 -22.200  -1.364  1.00  0.00    -0.013 A 
ATOM     12  C   UNL     1      18.402 -21.495  -2.561  1.00  0.00    +0.008 A 
ATOM     13  C   UNL     1      19.117 -23.154  -0.972  1.00  0.00    +0.008 A 
ATOM     14  C   UNL     1      19.549 -21.728  -3.329  1.00  0.00    +0.020 A 
ATOM     15  C   UNL     1      20.265 -23.390  -1.739  1.00  0.00    +0.020 A 
ATOM     16  C   UNL     1      20.484 -22.676  -2.919  1.00  0.00    +0.052 A 
ATOM     17  C   UNL     1      21.659 -22.919  -3.702  1.00  0.00    +0.099 C 
ATOM     18  N   UNL     1      22.612 -23.123  -4.333  1.00  0.00    -0.192 NA
ENDBRANCH   3  11
ENDBRANCH   1   2
BRANCH   1  19
ATOM     19  C   UNL     1      15.879 -19.889   3.356  1.00  0.00    +0.182 C 
ATOM     20  O   UNL     1      15.848 -21.003   3.880  1.00  0.00    -0.292 OA
BRANCH  19  21
ATOM     21  C   UNL     1      14.840 -18.885   3.735  1.00  0.00    +0.022 A 
ATOM     22  C   UNL     1      14.212 -18.888   4.981  1.00  0.00    +0.032 A 
ATOM     23  C   UNL     1      14.492 -17.909   2.798  1.00  0.00    +0.032 A 
ATOM     24  C   UNL     1      13.262 -17.912   5.232  1.00  0.00    +0.111 A 
ATOM     25  C   UNL     1      13.530 -16.978   3.145  1.00  0.00    +0.111 A 
ATOM     26  N   UNL     1      12.908 -16.961   4.343  1.00  0.00    -0.265 NA
ENDBRANCH  19  21
ENDBRANCH   1  19
TORSDOF 4
ENDMDL
MODEL 5
REMARK VINA RESULT:    -7.190      2.659      3.180
REMARK INTER + INTRA:         -10.064
REMARK INTER:                  -9.386
REMARK INTRA:                  -0.678
REMARK UNBOUND:                -1.192
REMARK SMILES CC1(c2ccc(C#N)cc2)NC(=O)N(CC(=O)c2ccncc2)C1=O
REMARK SMILES IDX 15 1 14 2 2 3 11 4 24 5 12 6 25 7 13 8 1 9 3 11 4 12 10 13
REMARK SMILES IDX 5 14 9 15 6 16 7 17 8 18 16 19 17 20 18 21 19 22 23 23 20 24
REMARK SMILES IDX 22 25 21 26
REMARK H PARENT 11 10
ROOT
ATOM      1  C   UNL     1      19.064 -21.228  -0.747  1.00  0.00    +0.211 C 
ENDROOT
BRANCH   1   2
ATOM      2  N   UNL     1      18.688 -21.725   0.557  1.00  0.00    -0.254 N 
ATOM      3  C   UNL     1      17.413 -22.462   2.411  1.00  0.00    +0.144 C 
ATOM      4  N   UNL     1      18.795 -22.161   2.732  1.00  0.00    -0.319 N 
ATOM      5  C   UNL     1      17.424 -22.121   0.901  1.00  0.00    +0.261 C 
ATOM      6  C   UNL     1      19.501 -21.704   1.645  1.00  0.00    +0.325 C 
ATOM      7  O   UNL     1      16.472 -22.210   0.135  1.00  0.00    -0.271 OA
ATOM      8  O   UNL     1      20.664 -21.340   1.688  1.00  0.00    -0.248 OA
ATOM      9  C   UNL     1      17.187 -23.973   2.542  1.00  0.00    +0.051 C 
ATOM     10  H   UNL     1      19.183 -22.117   3.664  1.00  0.00    +0.166 HD
BRANCH   3  11
ATOM     11  C   UNL     1      16.469 -21.564   3.210  1.00  0.00    -0.013 A 
ATOM     12  C   UNL     1      15.689 -22.107   4.251  1.00  0.00    +0.008 A 
ATOM     13  C   UNL     1      16.331 -20.191   2.944  1.00  0.00    +0.008 A 
ATOM     14  C   UNL     1      14.814 -21.311   4.998  1.00  0.00    +0.020 A 
ATOM     15  C   UNL     1      15.455 -19.393   3.690  1.00  0.00    +0.020 A 
ATOM     16  C   UNL     1      14.696 -19.950   4.720  1.00  0.00    +0.052 A 
ATOM     17  C   UNL     1      13.800 -19.132   5.483  1.00  0.00    +0.099 C 
ATOM     18  N   UNL     1      13.074 -18.463   6.094  1.00  0.00    -0.192 NA
ENDBRANCH   3  11
ENDBRANCH   1   2
BRANCH   1  19
ATOM     19  C   UNL     1      19.726 -22.346  -1.548  1.00  0.00    +0.182 C 
ATOM     20  O   UNL     1      19.701 -23.525  -1.195  1.00  0.00    -0.292 OA
BRANCH  19  21
ATOM     21  C   UNL     1      20.441 -21.987  -2.809  1.00  0.00    +0.022 A 
ATOM     22  C   UNL     1      21.829 -21.860  -2.876  1.00  0.00    +0.032 A 
ATOM     23  C   UNL     1      19.680 -21.771  -3.961  1.00  0.00    +0.032 A 
ATOM     24  C   UNL     1      22.393 -21.524  -4.096  1.00  0.00    +0.111 A 
ATOM     25  C   UNL     1      20.339 -21.439  -5.131  1.00  0.00    +0.111 A 
ATOM     26  N   UNL     1      21.679 -21.310  -5.220  1.00  0.00    -0.265 NA
ENDBRANCH  19  21
ENDBRANCH   1  19
TORSDOF 4
ENDMDL
MODEL 6
REMARK VINA RESULT:    -7.176      2.500      6.654
REMARK INTER + INTRA:         -10.046
REMARK INTER:                  -9.352
REMARK INTRA:                  -0.694
REMARK UNBOUND:                -1.192
REMARK SMILES CC1(c2ccc(C#N)cc2)NC(=O)N(CC(=O)c2ccncc2)C1=O
REMARK SMILES IDX 15 1 14 2 2 3 11 4 24 5 12 6 25 7 13 8 1 9 3 11 4 12 10 13
REMARK SMILES IDX 5 14 9 15 6 16 7 17 8 18 16 19 17 20 18 21 19 22 23 23 20 24
REMARK SMILES IDX 22 25 21 26
REMARK H PARENT 11 10
ROOT
ATOM      1  C   UNL     1      16.460 -20.287   4.317  1.00  0.00    +0.211 C 
ENDROOT
BRANCH   1   2
ATOM      2  N   UNL     1      16.749 -20.857   3.020  1.00  0.00    -0.254 N 
ATOM      3  C   UNL     1      17.480 -22.322   1.310  1.00  0.00    +0.144 C 
ATOM      4  N   UNL     1      17.203 -20.975   0.850  1.00  0.00    -0.319 N 
ATOM      5  C   UNL     1      17.156 -22.147   2.814  1.00  0.00    +0.261 C 
ATOM      6  C   UNL     1      16.813 -20.140   1.869  1.00  0.00    +0.325 C 
ATOM      7  O   UNL     1      17.228 -23.017   3.672  1.00  0.00    -0.271 OA
ATOM      8  O   UNL     1      16.578 -18.951   1.729  1.00  0.00    -0.248 OA
ATOM      9  C   UNL     1      16.435 -23.277   0.721  1.00  0.00    +0.051 C 
ATOM     10  H   UNL     1      17.421 -20.614  -0.068  1.00  0.00    +0.166 HD
BRANCH   3  11
ATOM     11  C   UNL     1      18.944 -22.682   1.062  1.00  0.00    -0.013 A 
ATOM     12  C   UNL     1      19.962 -22.057   1.811  1.00  0.00    +0.008 A 
ATOM     13  C   UNL     1      19.334 -23.622   0.093  1.00  0.00    +0.008 A 
ATOM     14  C   UNL     1      21.312 -22.364   1.605  1.00  0.00    +0.020 A 
ATOM     15  C   UNL     1      20.685 -23.929  -0.116  1.00  0.00    +0.020 A 
ATOM     16  C   UNL     1      21.677 -23.302   0.641  1.00  0.00    +0.052 A 
ATOM     17  C   UNL     1      23.058 -23.618   0.426  1.00  0.00    +0.099 C 
ATOM     18  N   UNL     1      24.175 -23.877   0.245  1.00  0.00    -0.192 NA
ENDBRANCH   3  11
ENDBRANCH   1   2
BRANCH   1  19
ATOM     19  C   UNL     1      14.970 -20.426   4.615  1.00  0.00    +0.182 C 
ATOM     20  O   UNL     1      14.409 -21.518   4.719  1.00  0.00    -0.292 OA
BRANCH  19  21
ATOM     21  C   UNL     1      14.161 -19.182   4.779  1.00  0.00    +0.022 A 
ATOM     22  C   UNL     1      13.351 -18.953   5.892  1.00  0.00    +0.032 A 
ATOM     23  C   UNL     1      14.225 -18.215   3.773  1.00  0.00    +0.032 A 
ATOM     24  C   UNL     1      12.641 -17.765   5.947  1.00  0.00    +0.111 A 
ATOM     25  C   UNL     1      13.477 -17.061   3.921  1.00  0.00    +0.111 A 
ATOM     26  N   UNL     1      12.687 -16.818   4.988  1.00  0.00    -0.265 NA
ENDBRANCH  19  21
ENDBRANCH   1  19
TORSDOF 4
ENDMDL
MODEL 7
REMARK VINA RESULT:    -7.147      2.528      6.954
REMARK INTER + INTRA:         -10.010
REMARK INTER:                  -9.217
REMARK INTRA:                  -0.793
REMARK UNBOUND:                -1.192
REMARK SMILES CC1(c2ccc(C#N)cc2)NC(=O)N(CC(=O)c2ccncc2)C1=O
REMARK SMILES IDX 15 1 14 2 2 3 11 4 24 5 12 6 25 7 13 8 1 9 3 11 4 12 10 13
REMARK SMILES IDX 5 14 9 15 6 16 7 17 8 18 16 19 17 20 18 21 19 22 23 23 20 24
REMARK SMILES IDX 22 25 21 26
REMARK H PARENT 11 10
ROOT
ATOM      1  C   UNL     1      16.960 -21.632   4.067  1.00  0.00    +0.211 C 
ENDROOT
BRANCH   1   2
ATOM      2  N   UNL     1      17.001 -21.581   2.622  1.00  0.00    -0.254 N 
ATOM      3  C   UNL     1      17.311 -22.171   0.351  1.00  0.00    +0.144 C 
ATOM      4  N   UNL     1      17.145 -20.747   0.569  1.00  0.00    -0.319 N 
ATOM      5  C   UNL     1      17.214 -22.665   1.815  1.00  0.00    +0.261 C 
ATOM      6  C   UNL     1      17.000 -20.432   1.899  1.00  0.00    +0.325 C 
ATOM      7  O   UNL     1      17.291 -23.828   2.189  1.00  0.00    -0.271 OA
ATOM      8  O   UNL     1      16.899 -19.294   2.326  1.00  0.00    -0.248 OA
ATOM      9  C   UNL     1      16.087 -22.708  -0.400  1.00  0.00    +0.051 C 
ATOM     10  H   UNL     1      17.282 -20.028  -0.127  1.00  0.00    +0.166 HD
BRANCH   3  11
ATOM     11  C   UNL     1      18.673 -22.461  -0.278  1.00  0.00    -0.013 A 
ATOM     12  C   UNL     1      18.780 -22.664  -1.669  1.00  0.00    +0.008 A 
ATOM     13  C   UNL     1      19.852 -22.547   0.483  1.00  0.00    +0.008 A 
ATOM     14  C   UNL     1      20.013 -22.934  -2.275  1.00  0.00    +0.020 A 
ATOM     15  C   UNL     1      21.086 -22.818  -0.121  1.00  0.00    +0.020 A 
ATOM     16  C   UNL     1      21.170 -23.010  -1.502  1.00  0.00    +0.052 A 
ATOM     17  C   UNL     1      22.434 -23.287  -2.117  1.00  0.00    +0.099 C 
ATOM     18  N   UNL     1      23.461 -23.514  -2.608  1.00  0.00    -0.192 NA
ENDBRANCH   3  11
ENDBRANCH   1   2
BRANCH   1  19
ATOM     19  C   UNL     1      15.523 -21.446   4.543  1.00  0.00    +0.182 C 
ATOM     20  O   UNL     1      14.653 -22.305   4.393  1.00  0.00    -0.292 OA
BRANCH  19  21
ATOM     21  C   UNL     1      15.158 -20.161   5.212  1.00  0.00    +0.022 A 
ATOM     22  C   UNL     1      13.873 -19.621   5.153  1.00  0.00    +0.032 A 
ATOM     23  C   UNL     1      16.151 -19.482   5.924  1.00  0.00    +0.032 A 
ATOM     24  C   UNL     1      13.640 -18.424   5.809  1.00  0.00    +0.111 A 
ATOM     25  C   UNL     1      15.817 -18.292   6.545  1.00  0.00    +0.111 A 
ATOM     26  N   UNL     1      14.582 -17.751   6.501  1.00  0.00    -0.265 NA
ENDBRANCH  19  21
ENDBRANCH   1  19
TORSDOF 4
ENDMDL
MODEL 8
REMARK VINA RESULT:    -7.018      2.807      6.564
REMARK INTER + INTRA:          -9.851
REMARK INTER:                  -9.008
REMARK INTRA:                  -0.843
REMARK UNBOUND:                -1.192
REMARK SMILES CC1(c2ccc(C#N)cc2)NC(=O)N(CC(=O)c2ccncc2)C1=O
REMARK SMILES IDX 15 1 14 2 2 3 11 4 24 5 12 6 25 7 13 8 1 9 3 11 4 12 10 13
REMARK SMILES IDX 5 14 9 15 6 16 7 17 8 18 16 19 17 20 18 21 19 22 23 23 20 24
REMARK SMILES IDX 22 25 21 26
REMARK H PARENT 11 10
ROOT
ATOM      1  C   UNL     1      17.365 -20.283   2.073  1.00  0.00    +0.211 C 
ENDROOT
BRANCH   1   2
ATOM      2  N   UNL     1      17.138 -21.339   1.113  1.00  0.00    -0.254 N 
ATOM      3  C   UNL     1      16.708 -23.457   0.146  1.00  0.00    +0.144 C 
ATOM      4  N   UNL     1      17.220 -22.477  -0.793  1.00  0.00    -0.319 N 
ATOM      5  C   UNL     1      16.698 -22.595   1.431  1.00  0.00    +0.261 C 
ATOM      6  C   UNL     1      17.492 -21.269  -0.197  1.00  0.00    +0.325 C 
ATOM      7  O   UNL     1      16.336 -22.962   2.542  1.00  0.00    -0.271 OA
ATOM      8  O   UNL     1      17.979 -20.313  -0.777  1.00  0.00    -0.248 OA
ATOM      9  C   UNL     1      15.251 -23.774  -0.209  1.00  0.00    +0.051 C 
ATOM     10  H   UNL     1      17.515 -22.671  -1.739  1.00  0.00    +0.166 HD
BRANCH   3  11
ATOM     11  C   UNL     1      17.657 -24.650   0.245  1.00  0.00    -0.013 A 
ATOM     12  C   UNL     1      17.152 -25.932   0.544  1.00  0.00    +0.008 A 
ATOM     13  C   UNL     1      19.044 -24.527   0.059  1.00  0.00    +0.008 A 
ATOM     14  C   UNL     1      17.995 -27.044   0.645  1.00  0.00    +0.020 A 
ATOM     15  C   UNL     1      19.891 -25.638   0.161  1.00  0.00    +0.020 A 
ATOM     16  C   UNL     1      19.368 -26.900   0.452  1.00  0.00    +0.052 A 
ATOM     17  C   UNL     1      20.236 -28.035   0.555  1.00  0.00    +0.099 C 
ATOM     18  N   UNL     1      20.945 -28.950   0.640  1.00  0.00    -0.192 NA
ENDBRANCH   3  11
ENDBRANCH   1   2
BRANCH   1  19
ATOM     19  C   UNL     1      16.123 -19.400   2.163  1.00  0.00    +0.182 C 
ATOM     20  O   UNL     1      15.728 -18.706   1.226  1.00  0.00    -0.292 OA
BRANCH  19  21
ATOM     21  C   UNL     1      15.364 -19.374   3.449  1.00  0.00    +0.022 A 
ATOM     22  C   UNL     1      15.550 -20.327   4.451  1.00  0.00    +0.032 A 
ATOM     23  C   UNL     1      14.432 -18.351   3.646  1.00  0.00    +0.032 A 
ATOM     24  C   UNL     1      14.794 -20.212   5.606  1.00  0.00    +0.111 A 
ATOM     25  C   UNL     1      13.727 -18.325   4.835  1.00  0.00    +0.111 A 
ATOM     26  N   UNL     1      13.890 -19.235   5.818  1.00  0.00    -0.265 NA
ENDBRANCH  19  21
ENDBRANCH   1  19
TORSDOF 4
ENDMDL
MODEL 9
REMARK VINA RESULT:    -6.989      2.778      6.508
REMARK INTER + INTRA:          -9.815
REMARK INTER:                  -9.166
REMARK INTRA:                  -0.649
REMARK UNBOUND:                -1.192
REMARK SMILES CC1(c2ccc(C#N)cc2)NC(=O)N(CC(=O)c2ccncc2)C1=O
REMARK SMILES IDX 15 1 14 2 2 3 11 4 24 5 12 6 25 7 13 8 1 9 3 11 4 12 10 13
REMARK SMILES IDX 5 14 9 15 6 16 7 17 8 18 16 19 17 20 18 21 19 22 23 23 20 24
REMARK SMILES IDX 22 25 21 26
REMARK H PARENT 11 10
ROOT
ATOM      1  C   UNL     1      15.762 -21.982   3.287  1.00  0.00    +0.211 C 
ENDROOT
BRANCH   1   2
ATOM      2  N   UNL     1      17.003 -21.959   2.546  1.00  0.00    -0.254 N 
ATOM      3  C   UNL     1      19.067 -22.600   1.579  1.00  0.00    +0.144 C 
ATOM      4  N   UNL     1      18.838 -21.168   1.576  1.00  0.00    -0.319 N 
ATOM      5  C   UNL     1      17.765 -23.064   2.277  1.00  0.00    +0.261 C 
ATOM      6  C   UNL     1      17.649 -20.824   2.174  1.00  0.00    +0.325 C 
ATOM      7  O   UNL     1      17.454 -24.222   2.526  1.00  0.00    -0.271 OA
ATOM      8  O   UNL     1      17.270 -19.676   2.333  1.00  0.00    -0.248 OA
ATOM      9  C   UNL     1      19.026 -23.116   0.136  1.00  0.00    +0.051 C 
ATOM     10  H   UNL     1      19.521 -20.466   1.329  1.00  0.00    +0.166 HD
BRANCH   3  11
ATOM     11  C   UNL     1      20.319 -22.941   2.386  1.00  0.00    -0.013 A 
ATOM     12  C   UNL     1      21.592 -22.579   1.900  1.00  0.00    +0.008 A 
ATOM     13  C   UNL     1      20.263 -23.622   3.613  1.00  0.00    +0.008 A 
ATOM     14  C   UNL     1      22.758 -22.879   2.613  1.00  0.00    +0.020 A 
ATOM     15  C   UNL     1      21.428 -23.924   4.329  1.00  0.00    +0.020 A 
ATOM     16  C   UNL     1      22.679 -23.552   3.831  1.00  0.00    +0.052 A 
ATOM     17  C   UNL     1      23.869 -23.862   4.566  1.00  0.00    +0.099 C 
ATOM     18  N   UNL     1      24.830 -24.119   5.164  1.00  0.00    -0.192 NA
ENDBRANCH   3  11
ENDBRANCH   1   2
BRANCH   1  19
ATOM     19  C   UNL     1      16.037 -21.668   4.755  1.00  0.00    +0.182 C 
ATOM     20  O   UNL     1      16.627 -22.447   5.505  1.00  0.00    -0.292 OA
BRANCH  19  21
ATOM     21  C   UNL     1      15.562 -20.363   5.302  1.00  0.00    +0.022 A 
ATOM     22  C   UNL     1      16.338 -19.578   6.155  1.00  0.00    +0.032 A 
ATOM     23  C   UNL     1      14.288 -19.918   4.938  1.00  0.00    +0.032 A 
ATOM     24  C   UNL     1      15.804 -18.383   6.606  1.00  0.00    +0.111 A 
ATOM     25  C   UNL     1      13.845 -18.709   5.442  1.00  0.00    +0.111 A 
ATOM     26  N   UNL     1      14.578 -17.934   6.269  1.00  0.00    -0.265 NA
ENDBRANCH  19  21
ENDBRANCH   1  19
TORSDOF 4
ENDMDL
