MODEL 1
REMARK VINA RESULT:    -8.775      0.000      0.000
REMARK INTER + INTRA:         -11.708
REMARK INTER:                 -10.827
REMARK INTRA:                  -0.881
REMARK UNBOUND:                -0.881
REMARK SMILES Cc1cccc(C(=O)CN2C(=O)NC(C)(c3ccc(C#N)cc3)C2=O)c1
REMARK SMILES IDX 7 1 8 2 6 3 2 4 3 5 26 6 4 7 5 8 1 9 9 10 10 11 11 12 24 13
REMARK SMILES IDX 12 14 13 15 14 16 25 17 15 19 16 20 17 21 23 22 18 23 22 24
REMARK SMILES IDX 19 25 20 26 21 27
REMARK H PARENT 13 18
ROOT
ATOM      1  C   UNL     1      16.134 -19.753   2.897  1.00  0.00    +0.182 C 
ATOM      2  O   UNL     1      16.252 -20.849   3.448  1.00  0.00    -0.292 OA
ENDROOT
BRANCH   1   3
ATOM      3  C   UNL     1      15.033 -18.837   3.323  1.00  0.00    +0.020 A 
ATOM      4  C   UNL     1      13.362 -18.070   4.924  1.00  0.00    -0.050 A 
ATOM      5  C   UNL     1      12.973 -17.072   4.025  1.00  0.00    +0.003 A 
ATOM      6  C   UNL     1      14.387 -18.959   4.562  1.00  0.00    +0.015 A 
ATOM      7  C   UNL     1      13.611 -16.943   2.792  1.00  0.00    +0.001 A 
ATOM      8  C   UNL     1      14.639 -17.819   2.443  1.00  0.00    +0.012 A 
ATOM      9  C   UNL     1      12.650 -18.225   6.236  1.00  0.00    +0.044 C 
ENDBRANCH   1   3
BRANCH   1  10
ATOM     10  C   UNL     1      17.066 -19.291   1.779  1.00  0.00    +0.211 C 
BRANCH  10  11
ATOM     11  N   UNL     1      17.261 -20.377   0.846  1.00  0.00    -0.254 N 
ATOM     12  C   UNL     1      16.499 -20.581  -0.257  1.00  0.00    +0.325 C 
ATOM     13  C   UNL     1      18.340 -21.217   0.849  1.00  0.00    +0.261 C 
ATOM     14  O   UNL     1      15.509 -19.956  -0.598  1.00  0.00    -0.248 OA
ATOM     15  N   UNL     1      17.022 -21.635  -0.966  1.00  0.00    -0.319 N 
ATOM     16  C   UNL     1      18.280 -22.104  -0.419  1.00  0.00    +0.144 C 
ATOM     17  O   UNL     1      19.220 -21.236   1.702  1.00  0.00    -0.271 OA
ATOM     18  H   UNL     1      16.672 -21.849  -1.890  1.00  0.00    +0.166 HD
ATOM     19  C   UNL     1      19.423 -21.720  -1.363  1.00  0.00    +0.051 C 
BRANCH  16  20
ATOM     20  C   UNL     1      18.268 -23.596  -0.088  1.00  0.00    -0.013 A 
ATOM     21  C   UNL     1      17.048 -24.253   0.162  1.00  0.00    +0.008 A 
ATOM     22  C   UNL     1      19.447 -24.360  -0.018  1.00  0.00    +0.008 A 
ATOM     23  C   UNL     1      17.006 -25.617   0.472  1.00  0.00    +0.020 A 
ATOM     24  C   UNL     1      19.408 -25.725   0.292  1.00  0.00    +0.020 A 
ATOM     25  C   UNL     1      18.187 -26.356   0.538  1.00  0.00    +0.052 A 
ATOM     26  C   UNL     1      18.149 -27.754   0.854  1.00  0.00    +0.099 C 
ATOM     27  N   UNL     1      18.120 -28.885   1.111  1.00  0.00    -0.192 NA
ENDBRANCH  16  20
ENDBRANCH  10  11
ENDBRANCH   1  10
TORSDOF 4
ENDMDL
MODEL 2
REMARK VINA RESULT:    -8.674      2.724      6.206
REMARK INTER + INTRA:         -11.582
REMARK INTER:                 -10.137
REMARK INTRA:                  -1.445
REMARK UNBOUND:                -0.881
REMARK SMILES Cc1cccc(C(=O)CN2C(=O)NC(C)(c3ccc(C#N)cc3)C2=O)c1
REMARK SMILES IDX 7 1 8 2 6 3 2 4 3 5 26 6 4 7 5 8 1 9 9 10 10 11 11 12 24 13
REMARK SMILES IDX 12 14 13 15 14 16 25 17 15 19 16 20 17 21 23 22 18 23 22 24
REMARK SMILES IDX 19 25 20 26 21 27
REMARK H PARENT 13 18
ROOT
ATOM      1  C   UNL     1      19.095 -22.104  -1.091  1.00  0.00    +0.182 C 
ATOM      2  O   UNL     1      20.073 -21.551  -1.598  1.00  0.00    -0.292 OA
ENDROOT
BRANCH   1   3
ATOM      3  C   UNL     1      17.794 -21.370  -1.028  1.00  0.00    +0.020 A 
ATOM      4  C   UNL     1      16.370 -19.569  -0.212  1.00  0.00    -0.050 A 
ATOM      5  C   UNL     1      15.311 -20.073  -0.974  1.00  0.00    +0.003 A 
ATOM      6  C   UNL     1      17.608 -20.230  -0.234  1.00  0.00    +0.015 A 
ATOM      7  C   UNL     1      15.489 -21.205  -1.768  1.00  0.00    +0.001 A 
ATOM      8  C   UNL     1      16.725 -21.850  -1.797  1.00  0.00    +0.012 A 
ATOM      9  C   UNL     1      16.165 -18.368   0.666  1.00  0.00    +0.044 C 
ENDBRANCH   1   3
BRANCH   1  10
ATOM     10  C   UNL     1      19.159 -23.513  -0.507  1.00  0.00    +0.211 C 
BRANCH  10  11
ATOM     11  N   UNL     1      18.383 -23.557   0.710  1.00  0.00    -0.254 N 
ATOM     12  C   UNL     1      17.227 -24.252   0.854  1.00  0.00    +0.325 C 
ATOM     13  C   UNL     1      18.803 -23.066   1.915  1.00  0.00    +0.261 C 
ATOM     14  O   UNL     1      16.625 -24.873  -0.006  1.00  0.00    -0.248 OA
ATOM     15  N   UNL     1      16.813 -24.156   2.160  1.00  0.00    -0.319 N 
ATOM     16  C   UNL     1      17.783 -23.485   3.003  1.00  0.00    +0.144 C 
ATOM     17  O   UNL     1      19.833 -22.427   2.099  1.00  0.00    -0.271 OA
ATOM     18  H   UNL     1      16.045 -24.722   2.493  1.00  0.00    +0.166 HD
ATOM     19  C   UNL     1      18.434 -24.503   3.944  1.00  0.00    +0.051 C 
BRANCH  16  20
ATOM     20  C   UNL     1      17.199 -22.286   3.748  1.00  0.00    -0.013 A 
ATOM     21  C   UNL     1      17.326 -22.196   5.148  1.00  0.00    +0.008 A 
ATOM     22  C   UNL     1      16.521 -21.246   3.087  1.00  0.00    +0.008 A 
ATOM     23  C   UNL     1      16.797 -21.112   5.858  1.00  0.00    +0.020 A 
ATOM     24  C   UNL     1      15.991 -20.161   3.795  1.00  0.00    +0.020 A 
ATOM     25  C   UNL     1      16.127 -20.092   5.183  1.00  0.00    +0.052 A 
ATOM     26  C   UNL     1      15.585 -18.980   5.906  1.00  0.00    +0.099 C 
ATOM     27  N   UNL     1      15.143 -18.080   6.490  1.00  0.00    -0.192 NA
ENDBRANCH  16  20
ENDBRANCH  10  11
ENDBRANCH   1  10
TORSDOF 4
ENDMDL
MODEL 3
REMARK VINA RESULT:    -8.498      2.536      6.522
REMARK INTER + INTRA:         -11.365
REMARK INTER:                 -10.236
REMARK INTRA:                  -1.130
REMARK UNBOUND:                -0.881
REMARK SMILES Cc1cccc(C(=O)CN2C(=O)NC(C)(c3ccc(C#N)cc3)C2=O)c1
REMARK SMILES IDX 7 1 8 2 6 3 2 4 3 5 26 6 4 7 5 8 1 9 9 10 10 11 11 12 24 13
REMARK SMILES IDX 12 14 13 15 14 16 25 17 15 19 16 20 17 21 23 22 18 23 22 24
REMARK SMILES IDX 19 25 20 26 21 27
REMARK H PARENT 13 18
ROOT
ATOM      1  C   UNL     1      19.185 -22.742  -1.325  1.00  0.00    +0.182 C 
ATOM      2  O   UNL     1      19.631 -23.079  -2.424  1.00  0.00    -0.292 OA
ENDROOT
BRANCH   1   3
ATOM      3  C   UNL     1      18.134 -21.681  -1.259  1.00  0.00    +0.020 A 
ATOM      4  C   UNL     1      15.829 -20.913  -1.449  1.00  0.00    -0.050 A 
ATOM      5  C   UNL     1      16.242 -19.619  -1.114  1.00  0.00    +0.003 A 
ATOM      6  C   UNL     1      16.783 -21.940  -1.531  1.00  0.00    +0.015 A 
ATOM      7  C   UNL     1      17.584 -19.355  -0.840  1.00  0.00    +0.001 A 
ATOM      8  C   UNL     1      18.525 -20.382  -0.909  1.00  0.00    +0.012 A 
ATOM      9  C   UNL     1      14.389 -21.186  -1.773  1.00  0.00    +0.044 C 
ENDBRANCH   1   3
BRANCH   1  10
ATOM     10  C   UNL     1      19.671 -23.361  -0.016  1.00  0.00    +0.211 C 
BRANCH  10  11
ATOM     11  N   UNL     1      18.620 -23.268   0.970  1.00  0.00    -0.254 N 
ATOM     12  C   UNL     1      17.536 -24.082   1.009  1.00  0.00    +0.325 C 
ATOM     13  C   UNL     1      18.675 -22.484   2.088  1.00  0.00    +0.261 C 
ATOM     14  O   UNL     1      17.233 -24.948   0.206  1.00  0.00    -0.248 OA
ATOM     15  N   UNL     1      16.798 -23.783   2.128  1.00  0.00    -0.319 N 
ATOM     16  C   UNL     1      17.457 -22.817   2.986  1.00  0.00    +0.144 C 
ATOM     17  O   UNL     1      19.560 -21.676   2.345  1.00  0.00    -0.271 OA
ATOM     18  H   UNL     1      16.027 -24.376   2.402  1.00  0.00    +0.166 HD
ATOM     19  C   UNL     1      17.940 -23.512   4.261  1.00  0.00    +0.051 C 
BRANCH  16  20
ATOM     20  C   UNL     1      16.593 -21.591   3.277  1.00  0.00    -0.013 A 
ATOM     21  C   UNL     1      15.750 -21.574   4.405  1.00  0.00    +0.008 A 
ATOM     22  C   UNL     1      16.599 -20.452   2.451  1.00  0.00    +0.008 A 
ATOM     23  C   UNL     1      14.944 -20.467   4.695  1.00  0.00    +0.020 A 
ATOM     24  C   UNL     1      15.794 -19.344   2.738  1.00  0.00    +0.020 A 
ATOM     25  C   UNL     1      14.963 -19.349   3.861  1.00  0.00    +0.052 A 
ATOM     26  C   UNL     1      14.141 -18.213   4.155  1.00  0.00    +0.099 C 
ATOM     27  N   UNL     1      13.474 -17.293   4.390  1.00  0.00    -0.192 NA
ENDBRANCH  16  20
ENDBRANCH  10  11
ENDBRANCH   1  10
TORSDOF 4
ENDMDL
MODEL 4
REMARK VINA RESULT:    -8.306      2.897      6.481
REMARK INTER + INTRA:         -11.129
REMARK INTER:                  -9.873
REMARK INTRA:                  -1.256
REMARK UNBOUND:                -0.881
REMARK SMILES Cc1cccc(C(=O)CN2C(=O)NC(C)(c3ccc(C#N)cc3)C2=O)c1
REMARK SMILES IDX 7 1 8 2 6 3 2 4 3 5 26 6 4 7 5 8 1 9 9 10 10 11 11 12 24 13
REMARK SMILES IDX 12 14 13 15 14 16 25 17 15 19 16 20 17 21 23 22 18 23 22 24
REMARK SMILES IDX 19 25 20 26 21 27
REMARK H PARENT 13 18
ROOT
ATOM      1  C   UNL     1      17.717 -22.762  -0.569  1.00  0.00    +0.182 C 
ATOM      2  O   UNL     1      17.003 -23.502  -1.248  1.00  0.00    -0.292 OA
ENDROOT
BRANCH   1   3
ATOM      3  C   UNL     1      17.543 -21.281  -0.677  1.00  0.00    +0.020 A 
ATOM      4  C   UNL     1      16.553 -19.168   0.025  1.00  0.00    -0.050 A 
ATOM      5  C   UNL     1      17.284 -18.506  -0.967  1.00  0.00    +0.003 A 
ATOM      6  C   UNL     1      16.678 -20.560   0.158  1.00  0.00    +0.015 A 
ATOM      7  C   UNL     1      18.147 -19.216  -1.800  1.00  0.00    +0.001 A 
ATOM      8  C   UNL     1      18.279 -20.597  -1.655  1.00  0.00    +0.012 A 
ATOM      9  C   UNL     1      15.600 -18.404   0.899  1.00  0.00    +0.044 C 
ENDBRANCH   1   3
BRANCH   1  10
ATOM     10  C   UNL     1      18.788 -23.297   0.379  1.00  0.00    +0.211 C 
BRANCH  10  11
ATOM     11  N   UNL     1      18.294 -23.232   1.735  1.00  0.00    -0.254 N 
ATOM     12  C   UNL     1      17.674 -24.257   2.371  1.00  0.00    +0.325 C 
ATOM     13  C   UNL     1      18.554 -22.211   2.606  1.00  0.00    +0.261 C 
ATOM     14  O   UNL     1      17.367 -25.341   1.902  1.00  0.00    -0.248 OA
ATOM     15  N   UNL     1      17.430 -23.888   3.671  1.00  0.00    -0.319 N 
ATOM     16  C   UNL     1      18.025 -22.609   4.006  1.00  0.00    +0.144 C 
ATOM     17  O   UNL     1      19.136 -21.169   2.324  1.00  0.00    -0.271 OA
ATOM     18  H   UNL     1      17.098 -24.570   4.339  1.00  0.00    +0.166 HD
ATOM     19  C   UNL     1      19.208 -22.828   4.953  1.00  0.00    +0.051 C 
BRANCH  16  20
ATOM     20  C   UNL     1      17.012 -21.605   4.555  1.00  0.00    -0.013 A 
ATOM     21  C   UNL     1      16.042 -21.044   3.703  1.00  0.00    +0.008 A 
ATOM     22  C   UNL     1      17.005 -21.205   5.904  1.00  0.00    +0.008 A 
ATOM     23  C   UNL     1      15.105 -20.119   4.176  1.00  0.00    +0.020 A 
ATOM     24  C   UNL     1      16.069 -20.279   6.380  1.00  0.00    +0.020 A 
ATOM     25  C   UNL     1      15.116 -19.733   5.516  1.00  0.00    +0.052 A 
ATOM     26  C   UNL     1      14.158 -18.787   6.005  1.00  0.00    +0.099 C 
ATOM     27  N   UNL     1      13.383 -18.020   6.403  1.00  0.00    -0.192 NA
ENDBRANCH  16  20
ENDBRANCH  10  11
ENDBRANCH   1  10
TORSDOF 4
ENDMDL
MODEL 5
REMARK VINA RESULT:    -8.121      2.382      4.032
REMARK INTER + INTRA:         -10.901
REMARK INTER:                 -10.116
REMARK INTRA:                  -0.785
REMARK UNBOUND:                -0.881
REMARK SMILES Cc1cccc(C(=O)CN2C(=O)NC(C)(c3ccc(C#N)cc3)C2=O)c1
REMARK SMILES IDX 7 1 8 2 6 3 2 4 3 5 26 6 4 7 5 8 1 9 9 10 10 11 11 12 24 13
REMARK SMILES IDX 12 14 13 15 14 16 25 17 15 19 16 20 17 21 23 22 18 23 22 24
REMARK SMILES IDX 19 25 20 26 21 27
REMARK H PARENT 13 18
ROOT
ATOM      1  C   UNL     1      15.436 -21.009   4.606  1.00  0.00    +0.182 C 
ATOM      2  O   UNL     1      14.869 -22.087   4.790  1.00  0.00    -0.292 OA
ENDROOT
BRANCH   1   3
ATOM      3  C   UNL     1      14.637 -19.746   4.658  1.00  0.00    +0.020 A 
ATOM      4  C   UNL     1      13.842 -17.655   3.691  1.00  0.00    -0.050 A 
ATOM      5  C   UNL     1      13.113 -17.404   4.859  1.00  0.00    +0.003 A 
ATOM      6  C   UNL     1      14.613 -18.825   3.601  1.00  0.00    +0.015 A 
ATOM      7  C   UNL     1      13.131 -18.316   5.913  1.00  0.00    +0.001 A 
ATOM      8  C   UNL     1      13.887 -19.484   5.812  1.00  0.00    +0.012 A 
ATOM      9  C   UNL     1      13.845 -16.654   2.572  1.00  0.00    +0.044 C 
ENDBRANCH   1   3
BRANCH   1  10
ATOM     10  C   UNL     1      16.931 -20.906   4.312  1.00  0.00    +0.211 C 
BRANCH  10  11
ATOM     11  N   UNL     1      17.263 -21.800   3.227  1.00  0.00    -0.254 N 
ATOM     12  C   UNL     1      17.728 -23.063   3.394  1.00  0.00    +0.325 C 
ATOM     13  C   UNL     1      16.975 -21.562   1.912  1.00  0.00    +0.261 C 
ATOM     14  O   UNL     1      18.011 -23.614   4.445  1.00  0.00    -0.248 OA
ATOM     15  N   UNL     1      17.840 -23.659   2.163  1.00  0.00    -0.319 N 
ATOM     16  C   UNL     1      17.303 -22.837   1.096  1.00  0.00    +0.144 C 
ATOM     17  O   UNL     1      16.507 -20.521   1.466  1.00  0.00    -0.271 OA
ATOM     18  H   UNL     1      18.041 -24.647   2.092  1.00  0.00    +0.166 HD
ATOM     19  C   UNL     1      16.002 -23.457   0.578  1.00  0.00    +0.051 C 
BRANCH  16  20
ATOM     20  C   UNL     1      18.312 -22.573  -0.020  1.00  0.00    -0.013 A 
ATOM     21  C   UNL     1      17.873 -22.087  -1.267  1.00  0.00    +0.008 A 
ATOM     22  C   UNL     1      19.691 -22.799   0.142  1.00  0.00    +0.008 A 
ATOM     23  C   UNL     1      18.773 -21.840  -2.310  1.00  0.00    +0.020 A 
ATOM     24  C   UNL     1      20.594 -22.554  -0.899  1.00  0.00    +0.020 A 
ATOM     25  C   UNL     1      20.136 -22.073  -2.128  1.00  0.00    +0.052 A 
ATOM     26  C   UNL     1      21.062 -21.821  -3.193  1.00  0.00    +0.099 C 
ATOM     27  N   UNL     1      21.813 -21.618  -4.055  1.00  0.00    -0.192 NA
ENDBRANCH  16  20
ENDBRANCH  10  11
ENDBRANCH   1  10
TORSDOF 4
ENDMDL
MODEL 6
REMARK VINA RESULT:    -8.034      2.535      4.472
REMARK INTER + INTRA:         -10.794
REMARK INTER:                  -9.650
REMARK INTRA:                  -1.144
REMARK UNBOUND:                -0.881
REMARK SMILES Cc1cccc(C(=O)CN2C(=O)NC(C)(c3ccc(C#N)cc3)C2=O)c1
REMARK SMILES IDX 7 1 8 2 6 3 2 4 3 5 26 6 4 7 5 8 1 9 9 10 10 11 11 12 24 13
REMARK SMILES IDX 12 14 13 15 14 16 25 17 15 19 16 20 17 21 23 22 18 23 22 24
REMARK SMILES IDX 19 25 20 26 21 27
REMARK H PARENT 13 18
ROOT
ATOM      1  C   UNL     1      16.229 -20.489   4.838  1.00  0.00    +0.182 C 
ATOM      2  O   UNL     1      16.698 -19.973   5.853  1.00  0.00    -0.292 OA
ENDROOT
BRANCH   1   3
ATOM      3  C   UNL     1      15.806 -19.613   3.703  1.00  0.00    +0.020 A 
ATOM      4  C   UNL     1      16.057 -18.742   1.441  1.00  0.00    -0.050 A 
ATOM      5  C   UNL     1      14.936 -17.928   1.640  1.00  0.00    +0.003 A 
ATOM      6  C   UNL     1      16.495 -19.575   2.482  1.00  0.00    +0.015 A 
ATOM      7  C   UNL     1      14.245 -17.962   2.850  1.00  0.00    +0.001 A 
ATOM      8  C   UNL     1      14.676 -18.802   3.876  1.00  0.00    +0.012 A 
ATOM      9  C   UNL     1      16.816 -18.679   0.147  1.00  0.00    +0.044 C 
ENDBRANCH   1   3
BRANCH   1  10
ATOM     10  C   UNL     1      16.049 -21.998   4.691  1.00  0.00    +0.211 C 
BRANCH  10  11
ATOM     11  N   UNL     1      17.144 -22.532   3.915  1.00  0.00    -0.254 N 
ATOM     12  C   UNL     1      18.415 -22.653   4.372  1.00  0.00    +0.325 C 
ATOM     13  C   UNL     1      17.006 -23.153   2.705  1.00  0.00    +0.261 C 
ATOM     14  O   UNL     1      18.855 -22.276   5.446  1.00  0.00    -0.248 OA
ATOM     15  N   UNL     1      19.170 -23.288   3.417  1.00  0.00    -0.319 N 
ATOM     16  C   UNL     1      18.373 -23.758   2.300  1.00  0.00    +0.144 C 
ATOM     17  O   UNL     1      15.963 -23.237   2.067  1.00  0.00    -0.271 OA
ATOM     18  H   UNL     1      20.111 -23.590   3.630  1.00  0.00    +0.166 HD
ATOM     19  C   UNL     1      18.285 -25.286   2.343  1.00  0.00    +0.051 C 
BRANCH  16  20
ATOM     20  C   UNL     1      18.867 -23.236   0.952  1.00  0.00    -0.013 A 
ATOM     21  C   UNL     1      18.745 -21.869   0.637  1.00  0.00    +0.008 A 
ATOM     22  C   UNL     1      19.450 -24.078  -0.013  1.00  0.00    +0.008 A 
ATOM     23  C   UNL     1      19.184 -21.364  -0.592  1.00  0.00    +0.020 A 
ATOM     24  C   UNL     1      19.890 -23.575  -1.243  1.00  0.00    +0.020 A 
ATOM     25  C   UNL     1      19.757 -22.216  -1.536  1.00  0.00    +0.052 A 
ATOM     26  C   UNL     1      20.209 -21.702  -2.795  1.00  0.00    +0.099 C 
ATOM     27  N   UNL     1      20.575 -21.288  -3.816  1.00  0.00    -0.192 NA
ENDBRANCH  16  20
ENDBRANCH  10  11
ENDBRANCH   1  10
TORSDOF 4
ENDMDL
MODEL 7
REMARK VINA RESULT:    -8.008      2.501      3.772
REMARK INTER + INTRA:         -10.762
REMARK INTER:                 -10.024
REMARK INTRA:                  -0.737
REMARK UNBOUND:                -0.881
REMARK SMILES Cc1cccc(C(=O)CN2C(=O)NC(C)(c3ccc(C#N)cc3)C2=O)c1
REMARK SMILES IDX 7 1 8 2 6 3 2 4 3 5 26 6 4 7 5 8 1 9 9 10 10 11 11 12 24 13
REMARK SMILES IDX 12 14 13 15 14 16 25 17 15 19 16 20 17 21 23 22 18 23 22 24
REMARK SMILES IDX 19 25 20 26 21 27
REMARK H PARENT 13 18
ROOT
ATOM      1  C   UNL     1      15.880 -19.122   2.095  1.00  0.00    +0.182 C 
ATOM      2  O   UNL     1      15.384 -18.572   1.110  1.00  0.00    -0.292 OA
ENDROOT
BRANCH   1   3
ATOM      3  C   UNL     1      15.108 -19.159   3.374  1.00  0.00    +0.020 A 
ATOM      4  C   UNL     1      13.543 -18.201   4.979  1.00  0.00    -0.050 A 
ATOM      5  C   UNL     1      13.711 -19.323   5.798  1.00  0.00    +0.003 A 
ATOM      6  C   UNL     1      14.255 -18.120   3.771  1.00  0.00    +0.015 A 
ATOM      7  C   UNL     1      14.556 -20.362   5.409  1.00  0.00    +0.001 A 
ATOM      8  C   UNL     1      15.249 -20.282   4.201  1.00  0.00    +0.012 A 
ATOM      9  C   UNL     1      12.657 -17.072   5.417  1.00  0.00    +0.044 C 
ENDBRANCH   1   3
BRANCH   1  10
ATOM     10  C   UNL     1      17.266 -19.762   2.068  1.00  0.00    +0.211 C 
BRANCH  10  11
ATOM     11  N   UNL     1      17.319 -20.731   0.997  1.00  0.00    -0.254 N 
ATOM     12  C   UNL     1      16.912 -22.019   1.113  1.00  0.00    +0.325 C 
ATOM     13  C   UNL     1      17.603 -20.429  -0.306  1.00  0.00    +0.261 C 
ATOM     14  O   UNL     1      16.519 -22.583   2.120  1.00  0.00    -0.248 OA
ATOM     15  N   UNL     1      17.007 -22.624  -0.116  1.00  0.00    -0.319 N 
ATOM     16  C   UNL     1      17.361 -21.692  -1.169  1.00  0.00    +0.144 C 
ATOM     17  O   UNL     1      17.961 -19.332  -0.717  1.00  0.00    -0.271 OA
ATOM     18  H   UNL     1      16.618 -23.546  -0.260  1.00  0.00    +0.166 HD
ATOM     19  C   UNL     1      16.150 -21.462  -2.077  1.00  0.00    +0.051 C 
BRANCH  16  20
ATOM     20  C   UNL     1      18.606 -22.116  -1.947  1.00  0.00    -0.013 A 
ATOM     21  C   UNL     1      19.495 -23.058  -1.396  1.00  0.00    +0.008 A 
ATOM     22  C   UNL     1      18.913 -21.594  -3.217  1.00  0.00    +0.008 A 
ATOM     23  C   UNL     1      20.646 -23.461  -2.083  1.00  0.00    +0.020 A 
ATOM     24  C   UNL     1      20.063 -21.995  -3.907  1.00  0.00    +0.020 A 
ATOM     25  C   UNL     1      20.933 -22.930  -3.341  1.00  0.00    +0.052 A 
ATOM     26  C   UNL     1      22.109 -23.341  -4.048  1.00  0.00    +0.099 C 
ATOM     27  N   UNL     1      23.063 -23.671  -4.623  1.00  0.00    -0.192 NA
ENDBRANCH  16  20
ENDBRANCH  10  11
ENDBRANCH   1  10
TORSDOF 4
ENDMDL
MODEL 8
REMARK VINA RESULT:    -7.951      3.593      8.563
REMARK INTER + INTRA:         -10.690
REMARK INTER:                  -9.831
REMARK INTRA:                  -0.859
REMARK UNBOUND:                -0.881
REMARK SMILES Cc1cccc(C(=O)CN2C(=O)NC(C)(c3ccc(C#N)cc3)C2=O)c1
REMARK SMILES IDX 7 1 8 2 6 3 2 4 3 5 26 6 4 7 5 8 1 9 9 10 10 11 11 12 24 13
REMARK SMILES IDX 12 14 13 15 14 16 25 17 15 19 16 20 17 21 23 22 18 23 22 24
REMARK SMILES IDX 19 25 20 26 21 27
REMARK H PARENT 13 18
ROOT
ATOM      1  C   UNL     1      20.665 -22.751  -3.429  1.00  0.00    +0.182 C 
ATOM      2  O   UNL     1      20.603 -23.922  -3.053  1.00  0.00    -0.292 OA
ENDROOT
BRANCH   1   3
ATOM      3  C   UNL     1      20.824 -22.460  -4.887  1.00  0.00    +0.020 A 
ATOM      4  C   UNL     1      21.748 -21.180  -6.744  1.00  0.00    -0.050 A 
ATOM      5  C   UNL     1      21.048 -21.994  -7.641  1.00  0.00    +0.003 A 
ATOM      6  C   UNL     1      21.622 -21.411  -5.364  1.00  0.00    +0.015 A 
ATOM      7  C   UNL     1      20.254 -23.040  -7.173  1.00  0.00    +0.001 A 
ATOM      8  C   UNL     1      20.144 -23.274  -5.803  1.00  0.00    +0.012 A 
ATOM      9  C   UNL     1      22.577 -20.035  -7.250  1.00  0.00    +0.044 C 
ENDBRANCH   1   3
BRANCH   1  10
ATOM     10  C   UNL     1      20.597 -21.571  -2.461  1.00  0.00    +0.211 C 
BRANCH  10  11
ATOM     11  N   UNL     1      19.280 -21.521  -1.869  1.00  0.00    -0.254 N 
ATOM     12  C   UNL     1      18.194 -20.976  -2.471  1.00  0.00    +0.325 C 
ATOM     13  C   UNL     1      18.920 -22.175  -0.724  1.00  0.00    +0.261 C 
ATOM     14  O   UNL     1      18.157 -20.389  -3.540  1.00  0.00    -0.248 OA
ATOM     15  N   UNL     1      17.095 -21.189  -1.676  1.00  0.00    -0.319 N 
ATOM     16  C   UNL     1      17.389 -22.036  -0.537  1.00  0.00    +0.144 C 
ATOM     17  O   UNL     1      19.684 -22.790   0.010  1.00  0.00    -0.271 OA
ATOM     18  H   UNL     1      16.169 -20.977  -2.021  1.00  0.00    +0.166 HD
ATOM     19  C   UNL     1      16.728 -23.404  -0.732  1.00  0.00    +0.051 C 
BRANCH  16  20
ATOM     20  C   UNL     1      17.019 -21.392   0.798  1.00  0.00    -0.013 A 
ATOM     21  C   UNL     1      16.833 -22.193   1.941  1.00  0.00    +0.008 A 
ATOM     22  C   UNL     1      16.850 -20.003   0.942  1.00  0.00    +0.008 A 
ATOM     23  C   UNL     1      16.489 -21.632   3.176  1.00  0.00    +0.020 A 
ATOM     24  C   UNL     1      16.506 -19.438   2.176  1.00  0.00    +0.020 A 
ATOM     25  C   UNL     1      16.324 -20.252   3.296  1.00  0.00    +0.052 A 
ATOM     26  C   UNL     1      15.974 -19.673   4.559  1.00  0.00    +0.099 C 
ATOM     27  N   UNL     1      15.688 -19.201   5.581  1.00  0.00    -0.192 NA
ENDBRANCH  16  20
ENDBRANCH  10  11
ENDBRANCH   1  10
TORSDOF 4
ENDMDL
MODEL 9
REMARK VINA RESULT:    -7.879      2.823      7.912
REMARK INTER + INTRA:         -10.602
REMARK INTER:                  -9.675
REMARK INTRA:                  -0.927
REMARK UNBOUND:                -0.881
REMARK SMILES Cc1cccc(C(=O)CN2C(=O)NC(C)(c3ccc(C#N)cc3)C2=O)c1
REMARK SMILES IDX 7 1 8 2 6 3 2 4 3 5 26 6 4 7 5 8 1 9 9 10 10 11 11 12 24 13
REMARK SMILES IDX 12 14 13 15 14 16 25 17 15 19 16 20 17 21 23 22 18 23 22 24
REMARK SMILES IDX 19 25 20 26 21 27
REMARK H PARENT 13 18
ROOT
ATOM      1  C   UNL     1      18.239 -25.491   1.181  1.00  0.00    +0.182 C 
ATOM      2  O   UNL     1      17.563 -26.243   0.477  1.00  0.00    -0.292 OA
ENDROOT
BRANCH   1   3
ATOM      3  C   UNL     1      19.334 -24.691   0.553  1.00  0.00    +0.020 A 
ATOM      4  C   UNL     1      20.146 -22.953  -0.950  1.00  0.00    -0.050 A 
ATOM      5  C   UNL     1      21.460 -23.254  -0.573  1.00  0.00    +0.003 A 
ATOM      6  C   UNL     1      19.086 -23.684  -0.391  1.00  0.00    +0.015 A 
ATOM      7  C   UNL     1      21.713 -24.252   0.366  1.00  0.00    +0.001 A 
ATOM      8  C   UNL     1      20.656 -24.966   0.929  1.00  0.00    +0.012 A 
ATOM      9  C   UNL     1      19.880 -21.898  -1.985  1.00  0.00    +0.044 C 
ENDBRANCH   1   3
BRANCH   1  10
ATOM     10  C   UNL     1      18.010 -25.347   2.684  1.00  0.00    +0.211 C 
BRANCH  10  11
ATOM     11  N   UNL     1      17.965 -23.944   3.024  1.00  0.00    -0.254 N 
ATOM     12  C   UNL     1      18.910 -23.306   3.759  1.00  0.00    +0.325 C 
ATOM     13  C   UNL     1      17.078 -23.047   2.497  1.00  0.00    +0.261 C 
ATOM     14  O   UNL     1      19.882 -23.801   4.305  1.00  0.00    -0.248 OA
ATOM     15  N   UNL     1      18.607 -21.967   3.802  1.00  0.00    -0.319 N 
ATOM     16  C   UNL     1      17.484 -21.623   2.952  1.00  0.00    +0.144 C 
ATOM     17  O   UNL     1      16.138 -23.329   1.763  1.00  0.00    -0.271 OA
ATOM     18  H   UNL     1      19.269 -21.308   4.188  1.00  0.00    +0.166 HD
ATOM     19  C   UNL     1      17.983 -20.827   1.743  1.00  0.00    +0.051 C 
BRANCH  16  20
ATOM     20  C   UNL     1      16.363 -20.908   3.703  1.00  0.00    -0.013 A 
ATOM     21  C   UNL     1      15.892 -19.662   3.248  1.00  0.00    +0.008 A 
ATOM     22  C   UNL     1      15.767 -21.448   4.857  1.00  0.00    +0.008 A 
ATOM     23  C   UNL     1      14.869 -18.981   3.918  1.00  0.00    +0.020 A 
ATOM     24  C   UNL     1      14.744 -20.769   5.530  1.00  0.00    +0.020 A 
ATOM     25  C   UNL     1      14.293 -19.533   5.062  1.00  0.00    +0.052 A 
ATOM     26  C   UNL     1      13.245 -18.839   5.751  1.00  0.00    +0.099 C 
ATOM     27  N   UNL     1      12.397 -18.278   6.311  1.00  0.00    -0.192 NA
ENDBRANCH  16  20
ENDBRANCH  10  11
ENDBRANCH   1  10
TORSDOF 4
ENDMDL
