MODEL 1
REMARK VINA RESULT:   -10.085      0.000      0.000
REMARK INTER + INTRA:         -13.495
REMARK INTER:                 -13.032
REMARK INTRA:                  -0.462
REMARK UNBOUND:                -0.462
REMARK SMILES NC(=O)/C=C/c1cc(C(F)(F)F)cc2c(=O)nc(N3CCN(CC4CCCCC4)CC3)sc12
REMARK SMILES IDX 6 1 7 2 8 3 13 4 14 5 15 6 16 7 17 8 18 9 19 10 20 11 21 12
REMARK SMILES IDX 22 13 30 14 31 15 32 16 33 17 5 18 4 19 2 20 1 21 3 22 9 25
REMARK SMILES IDX 10 26 11 27 12 28 23 29 24 30 25 31 29 32 26 33 28 34 27 35
REMARK H PARENT 1 23 1 24
ROOT
ATOM      1  C   UNL     1      15.318 -19.143   2.391  1.00  0.00    -0.007 A 
ATOM      2  C   UNL     1      14.572 -18.113   2.997  1.00  0.00    +0.022 A 
ATOM      3  C   UNL     1      14.145 -18.206   4.329  1.00  0.00    +0.057 A 
ATOM      4  C   UNL     1      14.463 -19.360   5.052  1.00  0.00    +0.028 A 
ATOM      5  C   UNL     1      15.211 -20.390   4.458  1.00  0.00    +0.060 A 
ATOM      6  C   UNL     1      15.531 -21.595   5.254  1.00  0.00    +0.281 C 
ATOM      7  O   UNL     1      14.766 -21.893   6.164  1.00  0.00    -0.267 OA
ATOM      8  N   UNL     1      16.694 -22.272   5.023  1.00  0.00    -0.181 NA
ATOM      9  C   UNL     1      17.219 -22.403   3.845  1.00  0.00    +0.189 C 
ATOM     10  N   UNL     1      18.393 -23.118   3.673  1.00  0.00    -0.345 N 
ATOM     11  C   UNL     1      18.967 -23.501   2.373  1.00  0.00    +0.134 C 
ATOM     12  C   UNL     1      19.852 -24.767   2.471  1.00  0.00    +0.106 C 
ATOM     13  N   UNL     1      20.928 -24.733   3.481  1.00  0.00    -0.300 NA
ATOM     14  C   UNL     1      20.638 -23.736   4.532  1.00  0.00    +0.106 C 
ATOM     15  C   UNL     1      19.136 -23.602   4.852  1.00  0.00    +0.134 C 
ATOM     16  S   UNL     1      16.496 -21.678   2.413  1.00  0.00    -0.098 SA
ATOM     17  C   UNL     1      15.631 -20.302   3.132  1.00  0.00    +0.051 A 
ENDROOT
BRANCH   1  18
ATOM     18  C   UNL     1      15.711 -18.983   0.980  1.00  0.00    +0.015 C 
ATOM     19  C   UNL     1      16.990 -19.006   0.575  1.00  0.00    +0.071 C 
BRANCH  19  20
ATOM     20  C   UNL     1      17.300 -18.857  -0.864  1.00  0.00    +0.241 C 
ATOM     21  N   UNL     1      16.672 -19.763  -1.658  1.00  0.00    -0.366 N 
ATOM     22  O   UNL     1      18.050 -18.006  -1.319  1.00  0.00    -0.270 OA
ATOM     23  H   UNL     1      16.052 -20.484  -1.321  1.00  0.00    +0.159 HD
ATOM     24  H   UNL     1      16.853 -19.710  -2.652  1.00  0.00    +0.159 HD
ENDBRANCH  19  20
ENDBRANCH   1  18
BRANCH   3  25
ATOM     25  C   UNL     1      13.323 -17.104   4.953  1.00  0.00    +0.416 C 
ATOM     26  F   UNL     1      14.079 -16.035   5.329  1.00  0.00    -0.166 F 
ATOM     27  F   UNL     1      12.658 -17.501   6.071  1.00  0.00    -0.166 F 
ATOM     28  F   UNL     1      12.381 -16.617   4.102  1.00  0.00    -0.166 F 
ENDBRANCH   3  25
BRANCH  13  29
ATOM     29  C   UNL     1      22.269 -24.538   2.916  1.00  0.00    +0.088 C 
BRANCH  29  30
ATOM     30  C   UNL     1      23.270 -23.834   3.863  1.00  0.00    +0.003 C 
ATOM     31  C   UNL     1      24.243 -24.836   4.520  1.00  0.00    +0.005 C 
ATOM     32  C   UNL     1      24.040 -22.672   3.229  1.00  0.00    +0.005 C 
ATOM     33  C   UNL     1      25.521 -24.188   5.062  1.00  0.00    +0.000 C 
ATOM     34  C   UNL     1      24.844 -21.887   4.271  1.00  0.00    +0.000 C 
ATOM     35  C   UNL     1      25.303 -22.735   5.457  1.00  0.00    +0.000 C 
ENDBRANCH  29  30
ENDBRANCH  13  29
TORSDOF 5
ENDMDL
MODEL 2
REMARK VINA RESULT:    -9.897      3.640      6.504
REMARK INTER + INTRA:         -13.252
REMARK INTER:                 -13.288
REMARK INTRA:                   0.035
REMARK UNBOUND:                -0.462
REMARK SMILES NC(=O)/C=C/c1cc(C(F)(F)F)cc2c(=O)nc(N3CCN(CC4CCCCC4)CC3)sc12
REMARK SMILES IDX 6 1 7 2 8 3 13 4 14 5 15 6 16 7 17 8 18 9 19 10 20 11 21 12
REMARK SMILES IDX 22 13 30 14 31 15 32 16 33 17 5 18 4 19 2 20 1 21 3 22 9 25
REMARK SMILES IDX 10 26 11 27 12 28 23 29 24 30 25 31 29 32 26 33 28 34 27 35
REMARK H PARENT 1 23 1 24
ROOT
ATOM      1  C   UNL     1      15.692 -20.000   4.267  1.00  0.00    -0.007 A 
ATOM      2  C   UNL     1      14.536 -19.606   4.968  1.00  0.00    +0.022 A 
ATOM      3  C   UNL     1      13.686 -18.606   4.475  1.00  0.00    +0.057 A 
ATOM      4  C   UNL     1      14.017 -17.987   3.266  1.00  0.00    +0.028 A 
ATOM      5  C   UNL     1      15.165 -18.375   2.557  1.00  0.00    +0.060 A 
ATOM      6  C   UNL     1      15.482 -17.700   1.280  1.00  0.00    +0.281 C 
ATOM      7  O   UNL     1      15.076 -16.553   1.128  1.00  0.00    -0.267 OA
ATOM      8  N   UNL     1      16.120 -18.388   0.287  1.00  0.00    -0.181 NA
ATOM      9  C   UNL     1      17.025 -19.288   0.515  1.00  0.00    +0.189 C 
ATOM     10  N   UNL     1      17.650 -19.940  -0.536  1.00  0.00    -0.345 N 
ATOM     11  C   UNL     1      18.820 -20.823  -0.407  1.00  0.00    +0.134 C 
ATOM     12  C   UNL     1      19.659 -20.880  -1.706  1.00  0.00    +0.106 C 
ATOM     13  N   UNL     1      18.926 -21.229  -2.940  1.00  0.00    -0.300 NA
ATOM     14  C   UNL     1      17.482 -20.953  -2.795  1.00  0.00    +0.106 C 
ATOM     15  C   UNL     1      17.178 -19.723  -1.917  1.00  0.00    +0.134 C 
ATOM     16  S   UNL     1      17.498 -19.748   2.147  1.00  0.00    -0.098 SA
ATOM     17  C   UNL     1      16.014 -19.366   3.048  1.00  0.00    +0.051 A 
ENDROOT
BRANCH   1  18
ATOM     18  C   UNL     1      16.548 -21.041   4.860  1.00  0.00    +0.015 C 
ATOM     19  C   UNL     1      17.315 -21.859   4.122  1.00  0.00    +0.071 C 
BRANCH  19  20
ATOM     20  C   UNL     1      18.161 -22.867   4.797  1.00  0.00    +0.241 C 
ATOM     21  N   UNL     1      19.150 -22.333   5.560  1.00  0.00    -0.366 N 
ATOM     22  O   UNL     1      18.004 -24.075   4.692  1.00  0.00    -0.270 OA
ATOM     23  H   UNL     1      19.317 -21.344   5.666  1.00  0.00    +0.159 HD
ATOM     24  H   UNL     1      19.764 -22.979   6.040  1.00  0.00    +0.159 HD
ENDBRANCH  19  20
ENDBRANCH   1  18
BRANCH   3  25
ATOM     25  C   UNL     1      12.465 -18.179   5.255  1.00  0.00    +0.416 C 
ATOM     26  F   UNL     1      12.764 -17.804   6.531  1.00  0.00    -0.166 F 
ATOM     27  F   UNL     1      11.531 -19.161   5.365  1.00  0.00    -0.166 F 
ATOM     28  F   UNL     1      11.837 -17.115   4.688  1.00  0.00    -0.166 F 
ENDBRANCH   3  25
BRANCH  13  29
ATOM     29  C   UNL     1      19.164 -22.600  -3.407  1.00  0.00    +0.088 C 
BRANCH  29  30
ATOM     30  C   UNL     1      20.244 -22.727  -4.508  1.00  0.00    +0.003 C 
ATOM     31  C   UNL     1      20.332 -21.454  -5.377  1.00  0.00    +0.005 C 
ATOM     32  C   UNL     1      21.631 -23.129  -3.999  1.00  0.00    +0.005 C 
ATOM     33  C   UNL     1      21.655 -21.318  -6.138  1.00  0.00    +0.000 C 
ATOM     34  C   UNL     1      22.590 -23.447  -5.151  1.00  0.00    +0.000 C 
ATOM     35  C   UNL     1      22.287 -22.670  -6.433  1.00  0.00    +0.000 C 
ENDBRANCH  29  30
ENDBRANCH  13  29
TORSDOF 5
ENDMDL
MODEL 3
REMARK VINA RESULT:    -9.650      1.528      2.423
REMARK INTER + INTRA:         -12.933
REMARK INTER:                 -12.320
REMARK INTRA:                  -0.613
REMARK UNBOUND:                -0.462
REMARK SMILES NC(=O)/C=C/c1cc(C(F)(F)F)cc2c(=O)nc(N3CCN(CC4CCCCC4)CC3)sc12
REMARK SMILES IDX 6 1 7 2 8 3 13 4 14 5 15 6 16 7 17 8 18 9 19 10 20 11 21 12
REMARK SMILES IDX 22 13 30 14 31 15 32 16 33 17 5 18 4 19 2 20 1 21 3 22 9 25
REMARK SMILES IDX 10 26 11 27 12 28 23 29 24 30 25 31 29 32 26 33 28 34 27 35
REMARK H PARENT 1 23 1 24
ROOT
ATOM      1  C   UNL     1      15.383 -19.189   2.396  1.00  0.00    -0.007 A 
ATOM      2  C   UNL     1      14.644 -18.169   3.027  1.00  0.00    +0.022 A 
ATOM      3  C   UNL     1      14.274 -18.262   4.376  1.00  0.00    +0.057 A 
ATOM      4  C   UNL     1      14.643 -19.407   5.091  1.00  0.00    +0.028 A 
ATOM      5  C   UNL     1      15.383 -20.426   4.472  1.00  0.00    +0.060 A 
ATOM      6  C   UNL     1      15.758 -21.620   5.260  1.00  0.00    +0.281 C 
ATOM      7  O   UNL     1      15.036 -21.927   6.203  1.00  0.00    -0.267 OA
ATOM      8  N   UNL     1      16.922 -22.278   4.985  1.00  0.00    -0.181 NA
ATOM      9  C   UNL     1      17.400 -22.407   3.787  1.00  0.00    +0.189 C 
ATOM     10  N   UNL     1      18.579 -23.102   3.570  1.00  0.00    -0.345 N 
ATOM     11  C   UNL     1      19.105 -23.482   2.248  1.00  0.00    +0.134 C 
ATOM     12  C   UNL     1      20.016 -24.731   2.316  1.00  0.00    +0.106 C 
ATOM     13  N   UNL     1      21.132 -24.673   3.281  1.00  0.00    -0.300 NA
ATOM     14  C   UNL     1      20.868 -23.675   4.338  1.00  0.00    +0.106 C 
ATOM     15  C   UNL     1      19.378 -23.566   4.719  1.00  0.00    +0.134 C 
ATOM     16  S   UNL     1      16.606 -21.703   2.382  1.00  0.00    -0.098 SA
ATOM     17  C   UNL     1      15.747 -20.338   3.129  1.00  0.00    +0.051 A 
ENDROOT
BRANCH   1  18
ATOM     18  C   UNL     1      15.714 -19.030   0.970  1.00  0.00    +0.015 C 
ATOM     19  C   UNL     1      16.976 -18.946   0.522  1.00  0.00    +0.071 C 
BRANCH  19  20
ATOM     20  C   UNL     1      17.225 -18.807  -0.930  1.00  0.00    +0.241 C 
ATOM     21  N   UNL     1      16.554 -19.709  -1.692  1.00  0.00    -0.366 N 
ATOM     22  O   UNL     1      17.964 -17.966  -1.421  1.00  0.00    -0.270 OA
ATOM     23  H   UNL     1      15.942 -20.422  -1.325  1.00  0.00    +0.159 HD
ATOM     24  H   UNL     1      16.692 -19.663  -2.693  1.00  0.00    +0.159 HD
ENDBRANCH  19  20
ENDBRANCH   1  18
BRANCH   3  25
ATOM     25  C   UNL     1      13.459 -17.171   5.028  1.00  0.00    +0.416 C 
ATOM     26  F   UNL     1      14.214 -16.093   5.381  1.00  0.00    -0.166 F 
ATOM     27  F   UNL     1      12.835 -17.578   6.167  1.00  0.00    -0.166 F 
ATOM     28  F   UNL     1      12.484 -16.696   4.209  1.00  0.00    -0.166 F 
ENDBRANCH   3  25
BRANCH  13  29
ATOM     29  C   UNL     1      22.445 -24.457   2.659  1.00  0.00    +0.088 C 
BRANCH  29  30
ATOM     30  C   UNL     1      22.423 -24.400   1.113  1.00  0.00    +0.003 C 
ATOM     31  C   UNL     1      22.779 -22.994   0.584  1.00  0.00    +0.005 C 
ATOM     32  C   UNL     1      23.276 -25.468   0.423  1.00  0.00    +0.005 C 
ATOM     33  C   UNL     1      23.241 -22.986  -0.877  1.00  0.00    +0.000 C 
ATOM     34  C   UNL     1      23.039 -25.494  -1.091  1.00  0.00    +0.000 C 
ATOM     35  C   UNL     1      22.645 -24.136  -1.674  1.00  0.00    +0.000 C 
ENDBRANCH  29  30
ENDBRANCH  13  29
TORSDOF 5
ENDMDL
MODEL 4
REMARK VINA RESULT:    -9.125      4.875      7.688
REMARK INTER + INTRA:         -12.255
REMARK INTER:                 -11.709
REMARK INTRA:                  -0.546
REMARK UNBOUND:                -0.462
REMARK SMILES NC(=O)/C=C/c1cc(C(F)(F)F)cc2c(=O)nc(N3CCN(CC4CCCCC4)CC3)sc12
REMARK SMILES IDX 6 1 7 2 8 3 13 4 14 5 15 6 16 7 17 8 18 9 19 10 20 11 21 12
REMARK SMILES IDX 22 13 30 14 31 15 32 16 33 17 5 18 4 19 2 20 1 21 3 22 9 25
REMARK SMILES IDX 10 26 11 27 12 28 23 29 24 30 25 31 29 32 26 33 28 34 27 35
REMARK H PARENT 1 23 1 24
ROOT
ATOM      1  C   UNL     1      18.635 -22.882   3.918  1.00  0.00    -0.007 A 
ATOM      2  C   UNL     1      17.681 -22.855   4.954  1.00  0.00    +0.022 A 
ATOM      3  C   UNL     1      16.626 -21.931   4.954  1.00  0.00    +0.057 A 
ATOM      4  C   UNL     1      16.543 -21.015   3.900  1.00  0.00    +0.028 A 
ATOM      5  C   UNL     1      17.487 -21.037   2.860  1.00  0.00    +0.060 A 
ATOM      6  C   UNL     1      17.366 -20.054   1.762  1.00  0.00    +0.281 C 
ATOM      7  O   UNL     1      16.813 -18.989   2.011  1.00  0.00    -0.267 OA
ATOM      8  N   UNL     1      17.776 -20.388   0.503  1.00  0.00    -0.181 NA
ATOM      9  C   UNL     1      18.800 -21.148   0.267  1.00  0.00    +0.189 C 
ATOM     10  N   UNL     1      19.177 -21.437  -1.034  1.00  0.00    -0.345 N 
ATOM     11  C   UNL     1      20.426 -22.114  -1.421  1.00  0.00    +0.134 C 
ATOM     12  C   UNL     1      20.876 -21.741  -2.854  1.00  0.00    +0.106 C 
ATOM     13  N   UNL     1      19.874 -21.931  -3.922  1.00  0.00    -0.300 NA
ATOM     14  C   UNL     1      18.505 -21.945  -3.368  1.00  0.00    +0.106 C 
ATOM     15  C   UNL     1      18.324 -21.008  -2.157  1.00  0.00    +0.134 C 
ATOM     16  S   UNL     1      19.750 -21.867   1.564  1.00  0.00    -0.098 SA
ATOM     17  C   UNL     1      18.539 -21.950   2.862  1.00  0.00    +0.051 A 
ENDROOT
BRANCH   1  18
ATOM     18  C   UNL     1      19.727 -23.866   4.000  1.00  0.00    +0.015 C 
ATOM     19  C   UNL     1      21.000 -23.521   4.247  1.00  0.00    +0.071 C 
BRANCH  19  20
ATOM     20  C   UNL     1      22.036 -24.574   4.333  1.00  0.00    +0.241 C 
ATOM     21  N   UNL     1      21.602 -25.803   3.954  1.00  0.00    -0.366 N 
ATOM     22  O   UNL     1      23.182 -24.377   4.709  1.00  0.00    -0.270 OA
ATOM     23  H   UNL     1      20.664 -26.007   3.645  1.00  0.00    +0.159 HD
ATOM     24  H   UNL     1      22.270 -26.563   3.999  1.00  0.00    +0.159 HD
ENDBRANCH  19  20
ENDBRANCH   1  18
BRANCH   3  25
ATOM     25  C   UNL     1      15.628 -21.900   6.087  1.00  0.00    +0.416 C 
ATOM     26  F   UNL     1      15.757 -20.791   6.867  1.00  0.00    -0.166 F 
ATOM     27  F   UNL     1      15.743 -22.962   6.929  1.00  0.00    -0.166 F 
ATOM     28  F   UNL     1      14.343 -21.902   5.644  1.00  0.00    -0.166 F 
ENDBRANCH   3  25
BRANCH  13  29
ATOM     29  C   UNL     1      20.120 -23.106  -4.768  1.00  0.00    +0.088 C 
BRANCH  29  30
ATOM     30  C   UNL     1      20.806 -22.793  -6.120  1.00  0.00    +0.003 C 
ATOM     31  C   UNL     1      20.326 -21.450  -6.712  1.00  0.00    +0.005 C 
ATOM     32  C   UNL     1      22.336 -22.852  -6.088  1.00  0.00    +0.005 C 
ATOM     33  C   UNL     1      21.282 -20.861  -7.755  1.00  0.00    +0.000 C 
ATOM     34  C   UNL     1      22.939 -22.750  -7.493  1.00  0.00    +0.000 C 
ATOM     35  C   UNL     1      22.085 -21.938  -8.468  1.00  0.00    +0.000 C 
ENDBRANCH  29  30
ENDBRANCH  13  29
TORSDOF 5
ENDMDL
MODEL 5
REMARK VINA RESULT:    -8.980      1.647      2.252
REMARK INTER + INTRA:         -12.067
REMARK INTER:                 -11.335
REMARK INTRA:                  -0.732
REMARK UNBOUND:                -0.462
REMARK SMILES NC(=O)/C=C/c1cc(C(F)(F)F)cc2c(=O)nc(N3CCN(CC4CCCCC4)CC3)sc12
REMARK SMILES IDX 6 1 7 2 8 3 13 4 14 5 15 6 16 7 17 8 18 9 19 10 20 11 21 12
REMARK SMILES IDX 22 13 30 14 31 15 32 16 33 17 5 18 4 19 2 20 1 21 3 22 9 25
REMARK SMILES IDX 10 26 11 27 12 28 23 29 24 30 25 31 29 32 26 33 28 34 27 35
REMARK H PARENT 1 23 1 24
ROOT
ATOM      1  C   UNL     1      16.877 -20.441   1.927  1.00  0.00    -0.007 A 
ATOM      2  C   UNL     1      15.943 -19.580   2.536  1.00  0.00    +0.022 A 
ATOM      3  C   UNL     1      15.556 -19.749   3.873  1.00  0.00    +0.057 A 
ATOM      4  C   UNL     1      16.109 -20.810   4.598  1.00  0.00    +0.028 A 
ATOM      5  C   UNL     1      17.044 -21.670   4.001  1.00  0.00    +0.060 A 
ATOM      6  C   UNL     1      17.611 -22.779   4.799  1.00  0.00    +0.281 C 
ATOM      7  O   UNL     1      16.931 -23.221   5.719  1.00  0.00    -0.267 OA
ATOM      8  N   UNL     1      18.885 -23.207   4.560  1.00  0.00    -0.181 NA
ATOM      9  C   UNL     1      19.415 -23.237   3.377  1.00  0.00    +0.189 C 
ATOM     10  N   UNL     1      20.708 -23.699   3.196  1.00  0.00    -0.345 N 
ATOM     11  C   UNL     1      21.335 -23.966   1.892  1.00  0.00    +0.134 C 
ATOM     12  C   UNL     1      22.460 -25.025   1.987  1.00  0.00    +0.106 C 
ATOM     13  N   UNL     1      23.516 -24.766   2.985  1.00  0.00    -0.300 NA
ATOM     14  C   UNL     1      23.039 -23.842   4.034  1.00  0.00    +0.106 C 
ATOM     15  C   UNL     1      21.544 -24.014   4.369  1.00  0.00    +0.134 C 
ATOM     16  S   UNL     1      18.546 -22.684   1.949  1.00  0.00    -0.098 SA
ATOM     17  C   UNL     1      17.426 -21.507   2.670  1.00  0.00    +0.051 A 
ENDROOT
BRANCH   1  18
ATOM     18  C   UNL     1      17.216 -20.214   0.512  1.00  0.00    +0.015 C 
ATOM     19  C   UNL     1      17.233 -18.994  -0.045  1.00  0.00    +0.071 C 
BRANCH  19  20
ATOM     20  C   UNL     1      17.604 -18.850  -1.470  1.00  0.00    +0.241 C 
ATOM     21  N   UNL     1      17.565 -20.014  -2.169  1.00  0.00    -0.366 N 
ATOM     22  O   UNL     1      17.922 -17.791  -1.991  1.00  0.00    -0.270 OA
ATOM     23  H   UNL     1      17.315 -20.908  -1.774  1.00  0.00    +0.159 HD
ATOM     24  H   UNL     1      17.815 -19.974  -3.149  1.00  0.00    +0.159 HD
ENDBRANCH  19  20
ENDBRANCH   1  18
BRANCH   3  25
ATOM     25  C   UNL     1      14.532 -18.833   4.501  1.00  0.00    +0.416 C 
ATOM     26  F   UNL     1      15.030 -18.144   5.565  1.00  0.00    -0.166 F 
ATOM     27  F   UNL     1      13.437 -19.493   4.963  1.00  0.00    -0.166 F 
ATOM     28  F   UNL     1      14.073 -17.897   3.628  1.00  0.00    -0.166 F 
ENDBRANCH   3  25
BRANCH  13  29
ATOM     29  C   UNL     1      24.784 -24.306   2.405  1.00  0.00    +0.088 C 
BRANCH  29  30
ATOM     30  C   UNL     1      25.735 -23.609   3.408  1.00  0.00    +0.003 C 
ATOM     31  C   UNL     1      26.945 -24.498   3.767  1.00  0.00    +0.005 C 
ATOM     32  C   UNL     1      26.199 -22.213   2.982  1.00  0.00    +0.005 C 
ATOM     33  C   UNL     1      28.131 -23.718   4.344  1.00  0.00    +0.000 C 
ATOM     34  C   UNL     1      26.953 -21.497   4.108  1.00  0.00    +0.000 C 
ATOM     35  C   UNL     1      27.691 -22.446   5.052  1.00  0.00    +0.000 C 
ENDBRANCH  29  30
ENDBRANCH  13  29
TORSDOF 5
ENDMDL
MODEL 6
REMARK VINA RESULT:    -8.918      2.244      3.103
REMARK INTER + INTRA:         -11.987
REMARK INTER:                 -11.380
REMARK INTRA:                  -0.607
REMARK UNBOUND:                -0.462
REMARK SMILES NC(=O)/C=C/c1cc(C(F)(F)F)cc2c(=O)nc(N3CCN(CC4CCCCC4)CC3)sc12
REMARK SMILES IDX 6 1 7 2 8 3 13 4 14 5 15 6 16 7 17 8 18 9 19 10 20 11 21 12
REMARK SMILES IDX 22 13 30 14 31 15 32 16 33 17 5 18 4 19 2 20 1 21 3 22 9 25
REMARK SMILES IDX 10 26 11 27 12 28 23 29 24 30 25 31 29 32 26 33 28 34 27 35
REMARK H PARENT 1 23 1 24
ROOT
ATOM      1  C   UNL     1      17.009 -20.079   2.035  1.00  0.00    -0.007 A 
ATOM      2  C   UNL     1      16.011 -19.334   2.692  1.00  0.00    +0.022 A 
ATOM      3  C   UNL     1      15.556 -19.686   3.970  1.00  0.00    +0.057 A 
ATOM      4  C   UNL     1      16.109 -20.814   4.587  1.00  0.00    +0.028 A 
ATOM      5  C   UNL     1      17.109 -21.561   3.942  1.00  0.00    +0.060 A 
ATOM      6  C   UNL     1      17.672 -22.745   4.625  1.00  0.00    +0.281 C 
ATOM      7  O   UNL     1      16.959 -23.323   5.439  1.00  0.00    -0.267 OA
ATOM      8  N   UNL     1      18.973 -23.099   4.411  1.00  0.00    -0.181 NA
ATOM      9  C   UNL     1      19.568 -22.959   3.268  1.00  0.00    +0.189 C 
ATOM     10  N   UNL     1      20.887 -23.354   3.107  1.00  0.00    -0.345 N 
ATOM     11  C   UNL     1      21.596 -23.430   1.819  1.00  0.00    +0.134 C 
ATOM     12  C   UNL     1      22.753 -24.457   1.846  1.00  0.00    +0.106 C 
ATOM     13  N   UNL     1      23.741 -24.296   2.931  1.00  0.00    -0.300 NA
ATOM     14  C   UNL     1      23.172 -23.531   4.059  1.00  0.00    +0.106 C 
ATOM     15  C   UNL     1      21.668 -23.791   4.279  1.00  0.00    +0.134 C 
ATOM     16  S   UNL     1      18.760 -22.253   1.872  1.00  0.00    -0.098 SA
ATOM     17  C   UNL     1      17.557 -21.215   2.668  1.00  0.00    +0.051 A 
ENDROOT
BRANCH   1  18
ATOM     18  C   UNL     1      17.418 -19.661   0.684  1.00  0.00    +0.015 C 
ATOM     19  C   UNL     1      17.052 -20.323  -0.424  1.00  0.00    +0.071 C 
BRANCH  19  20
ATOM     20  C   UNL     1      17.489 -19.825  -1.747  1.00  0.00    +0.241 C 
ATOM     21  N   UNL     1      17.944 -18.546  -1.730  1.00  0.00    -0.366 N 
ATOM     22  O   UNL     1      17.452 -20.487  -2.774  1.00  0.00    -0.270 OA
ATOM     23  H   UNL     1      17.984 -17.965  -0.906  1.00  0.00    +0.159 HD
ATOM     24  H   UNL     1      18.251 -18.152  -2.611  1.00  0.00    +0.159 HD
ENDBRANCH  19  20
ENDBRANCH   1  18
BRANCH   3  25
ATOM     25  C   UNL     1      14.465 -18.891   4.647  1.00  0.00    +0.416 C 
ATOM     26  F   UNL     1      14.916 -18.199   5.730  1.00  0.00    -0.166 F 
ATOM     27  F   UNL     1      13.443 -19.665   5.100  1.00  0.00    -0.166 F 
ATOM     28  F   UNL     1      13.907 -17.971   3.817  1.00  0.00    -0.166 F 
ENDBRANCH   3  25
BRANCH  13  29
ATOM     29  C   UNL     1      25.021 -23.726   2.492  1.00  0.00    +0.088 C 
BRANCH  29  30
ATOM     30  C   UNL     1      24.973 -23.025   1.112  1.00  0.00    +0.003 C 
ATOM     31  C   UNL     1      25.058 -21.489   1.244  1.00  0.00    +0.005 C 
ATOM     32  C   UNL     1      26.002 -23.538   0.100  1.00  0.00    +0.005 C 
ATOM     33  C   UNL     1      25.496 -20.785  -0.044  1.00  0.00    +0.000 C 
ATOM     34  C   UNL     1      25.758 -22.961  -1.299  1.00  0.00    +0.000 C 
ATOM     35  C   UNL     1      25.114 -21.574  -1.287  1.00  0.00    +0.000 C 
ENDBRANCH  29  30
ENDBRANCH  13  29
TORSDOF 5
ENDMDL
MODEL 7
REMARK VINA RESULT:    -8.736      5.431      9.936
REMARK INTER + INTRA:         -11.751
REMARK INTER:                 -11.026
REMARK INTRA:                  -0.725
REMARK UNBOUND:                -0.462
REMARK SMILES NC(=O)/C=C/c1cc(C(F)(F)F)cc2c(=O)nc(N3CCN(CC4CCCCC4)CC3)sc12
REMARK SMILES IDX 6 1 7 2 8 3 13 4 14 5 15 6 16 7 17 8 18 9 19 10 20 11 21 12
REMARK SMILES IDX 22 13 30 14 31 15 32 16 33 17 5 18 4 19 2 20 1 21 3 22 9 25
REMARK SMILES IDX 10 26 11 27 12 28 23 29 24 30 25 31 29 32 26 33 28 34 27 35
REMARK H PARENT 1 23 1 24
ROOT
ATOM      1  C   UNL     1      23.388 -22.846   2.014  1.00  0.00    -0.007 A 
ATOM      2  C   UNL     1      24.296 -22.705   0.946  1.00  0.00    +0.022 A 
ATOM      3  C   UNL     1      23.870 -22.767  -0.389  1.00  0.00    +0.057 A 
ATOM      4  C   UNL     1      22.513 -22.986  -0.646  1.00  0.00    +0.028 A 
ATOM      5  C   UNL     1      21.600 -23.123   0.412  1.00  0.00    +0.060 A 
ATOM      6  C   UNL     1      20.172 -23.351   0.103  1.00  0.00    +0.281 C 
ATOM      7  O   UNL     1      19.903 -23.899  -0.961  1.00  0.00    -0.267 OA
ATOM      8  N   UNL     1      19.209 -22.871   0.943  1.00  0.00    -0.181 NA
ATOM      9  C   UNL     1      19.350 -22.821   2.231  1.00  0.00    +0.189 C 
ATOM     10  N   UNL     1      18.328 -22.339   3.033  1.00  0.00    -0.345 N 
ATOM     11  C   UNL     1      18.296 -22.423   4.502  1.00  0.00    +0.134 C 
ATOM     12  C   UNL     1      16.852 -22.413   5.060  1.00  0.00    +0.106 C 
ATOM     13  N   UNL     1      15.992 -21.295   4.622  1.00  0.00    -0.300 NA
ATOM     14  C   UNL     1      16.491 -20.704   3.363  1.00  0.00    +0.106 C 
ATOM     15  C   UNL     1      17.133 -21.735   2.414  1.00  0.00    +0.134 C 
ATOM     16  S   UNL     1      20.831 -23.337   3.031  1.00  0.00    -0.098 SA
ATOM     17  C   UNL     1      22.022 -23.068   1.740  1.00  0.00    +0.051 A 
ENDROOT
BRANCH   1  18
ATOM     18  C   UNL     1      23.914 -22.793   3.389  1.00  0.00    +0.015 C 
ATOM     19  C   UNL     1      24.653 -21.770   3.846  1.00  0.00    +0.071 C 
BRANCH  19  20
ATOM     20  C   UNL     1      25.126 -21.785   5.248  1.00  0.00    +0.241 C 
ATOM     21  N   UNL     1      24.936 -22.972   5.880  1.00  0.00    -0.366 N 
ATOM     22  O   UNL     1      25.643 -20.828   5.806  1.00  0.00    -0.270 OA
ATOM     23  H   UNL     1      24.507 -23.781   5.457  1.00  0.00    +0.159 HD
ATOM     24  H   UNL     1      25.237 -23.036   6.844  1.00  0.00    +0.159 HD
ENDBRANCH  19  20
ENDBRANCH   1  18
BRANCH   3  25
ATOM     25  C   UNL     1      24.862 -22.641  -1.520  1.00  0.00    +0.416 C 
ATOM     26  F   UNL     1      26.035 -23.285  -1.262  1.00  0.00    -0.166 F 
ATOM     27  F   UNL     1      25.198 -21.352  -1.796  1.00  0.00    -0.166 F 
ATOM     28  F   UNL     1      24.390 -23.169  -2.681  1.00  0.00    -0.166 F 
ENDBRANCH   3  25
BRANCH  13  29
ATOM     29  C   UNL     1      15.783 -20.267   5.649  1.00  0.00    +0.088 C 
BRANCH  29  30
ATOM     30  C   UNL     1      14.732 -19.193   5.278  1.00  0.00    +0.003 C 
ATOM     31  C   UNL     1      13.290 -19.721   5.436  1.00  0.00    +0.005 C 
ATOM     32  C   UNL     1      14.900 -17.857   6.008  1.00  0.00    +0.005 C 
ATOM     33  C   UNL     1      12.239 -18.612   5.559  1.00  0.00    +0.000 C 
ATOM     34  C   UNL     1      13.972 -16.778   5.440  1.00  0.00    +0.000 C 
ATOM     35  C   UNL     1      12.671 -17.333   4.858  1.00  0.00    +0.000 C 
ENDBRANCH  29  30
ENDBRANCH  13  29
TORSDOF 5
ENDMDL
MODEL 8
REMARK VINA RESULT:    -8.481      7.234     10.613
REMARK INTER + INTRA:         -11.422
REMARK INTER:                 -10.753
REMARK INTRA:                  -0.669
REMARK UNBOUND:                -0.462
REMARK SMILES NC(=O)/C=C/c1cc(C(F)(F)F)cc2c(=O)nc(N3CCN(CC4CCCCC4)CC3)sc12
REMARK SMILES IDX 6 1 7 2 8 3 13 4 14 5 15 6 16 7 17 8 18 9 19 10 20 11 21 12
REMARK SMILES IDX 22 13 30 14 31 15 32 16 33 17 5 18 4 19 2 20 1 21 3 22 9 25
REMARK SMILES IDX 10 26 11 27 12 28 23 29 24 30 25 31 29 32 26 33 28 34 27 35
REMARK H PARENT 1 23 1 24
ROOT
ATOM      1  C   UNL     1      24.556 -22.255  -2.261  1.00  0.00    -0.007 A 
ATOM      2  C   UNL     1      25.146 -22.144  -3.536  1.00  0.00    +0.022 A 
ATOM      3  C   UNL     1      24.501 -22.624  -4.685  1.00  0.00    +0.057 A 
ATOM      4  C   UNL     1      23.251 -23.236  -4.541  1.00  0.00    +0.028 A 
ATOM      5  C   UNL     1      22.653 -23.347  -3.275  1.00  0.00    +0.060 A 
ATOM      6  C   UNL     1      21.330 -23.997  -3.162  1.00  0.00    +0.281 C 
ATOM      7  O   UNL     1      21.032 -24.830  -4.011  1.00  0.00    -0.267 OA
ATOM      8  N   UNL     1      20.455 -23.594  -2.194  1.00  0.00    -0.181 NA
ATOM      9  C   UNL     1      20.829 -23.209  -1.014  1.00  0.00    +0.189 C 
ATOM     10  N   UNL     1      19.891 -22.827  -0.068  1.00  0.00    -0.345 N 
ATOM     11  C   UNL     1      20.180 -22.568   1.352  1.00  0.00    +0.134 C 
ATOM     12  C   UNL     1      18.943 -22.794   2.254  1.00  0.00    +0.106 C 
ATOM     13  N   UNL     1      17.716 -22.068   1.872  1.00  0.00    -0.300 NA
ATOM     14  C   UNL     1      17.750 -21.683   0.446  1.00  0.00    +0.106 C 
ATOM     15  C   UNL     1      18.471 -22.710  -0.449  1.00  0.00    +0.134 C 
ATOM     16  S   UNL     1      22.525 -23.128  -0.549  1.00  0.00    -0.098 SA
ATOM     17  C   UNL     1      23.295 -22.876  -2.131  1.00  0.00    +0.051 A 
ENDROOT
BRANCH   1  18
ATOM     18  C   UNL     1      25.305 -21.749  -1.099  1.00  0.00    +0.015 C 
ATOM     19  C   UNL     1      25.576 -20.447  -0.920  1.00  0.00    +0.071 C 
BRANCH  19  20
ATOM     20  C   UNL     1      26.318 -20.018   0.287  1.00  0.00    +0.241 C 
ATOM     21  N   UNL     1      26.213 -20.878   1.332  1.00  0.00    -0.366 N 
ATOM     22  O   UNL     1      26.970 -18.987   0.358  1.00  0.00    -0.270 OA
ATOM     23  H   UNL     1      25.678 -21.734   1.315  1.00  0.00    +0.159 HD
ATOM     24  H   UNL     1      26.697 -20.630   2.186  1.00  0.00    +0.159 HD
ENDBRANCH  19  20
ENDBRANCH   1  18
BRANCH   3  25
ATOM     25  C   UNL     1      25.161 -22.521  -6.039  1.00  0.00    +0.416 C 
ATOM     26  F   UNL     1      26.121 -21.555  -6.081  1.00  0.00    -0.166 F 
ATOM     27  F   UNL     1      24.287 -22.221  -7.038  1.00  0.00    -0.166 F 
ATOM     28  F   UNL     1      25.774 -23.678  -6.404  1.00  0.00    -0.166 F 
ENDBRANCH   3  25
BRANCH  13  29
ATOM     29  C   UNL     1      17.415 -20.914   2.729  1.00  0.00    +0.088 C 
BRANCH  29  30
ATOM     30  C   UNL     1      16.215 -21.119   3.685  1.00  0.00    +0.003 C 
ATOM     31  C   UNL     1      16.597 -21.973   4.913  1.00  0.00    +0.005 C 
ATOM     32  C   UNL     1      15.519 -19.827   4.121  1.00  0.00    +0.005 C 
ATOM     33  C   UNL     1      15.637 -21.811   6.097  1.00  0.00    +0.000 C 
ATOM     34  C   UNL     1      14.219 -20.110   4.882  1.00  0.00    +0.000 C 
ATOM     35  C   UNL     1      14.233 -21.433   5.649  1.00  0.00    +0.000 C 
ENDBRANCH  29  30
ENDBRANCH  13  29
TORSDOF 5
ENDMDL
MODEL 9
REMARK VINA RESULT:    -8.464      5.663     10.281
REMARK INTER + INTRA:         -11.400
REMARK INTER:                 -10.678
REMARK INTRA:                  -0.722
REMARK UNBOUND:                -0.462
REMARK SMILES NC(=O)/C=C/c1cc(C(F)(F)F)cc2c(=O)nc(N3CCN(CC4CCCCC4)CC3)sc12
REMARK SMILES IDX 6 1 7 2 8 3 13 4 14 5 15 6 16 7 17 8 18 9 19 10 20 11 21 12
REMARK SMILES IDX 22 13 30 14 31 15 32 16 33 17 5 18 4 19 2 20 1 21 3 22 9 25
REMARK SMILES IDX 10 26 11 27 12 28 23 29 24 30 25 31 29 32 26 33 28 34 27 35
REMARK H PARENT 1 23 1 24
ROOT
ATOM      1  C   UNL     1      25.054 -22.654   3.145  1.00  0.00    -0.007 A 
ATOM      2  C   UNL     1      26.103 -22.036   2.437  1.00  0.00    +0.022 A 
ATOM      3  C   UNL     1      25.947 -21.631   1.103  1.00  0.00    +0.057 A 
ATOM      4  C   UNL     1      24.720 -21.866   0.475  1.00  0.00    +0.028 A 
ATOM      5  C   UNL     1      23.666 -22.478   1.173  1.00  0.00    +0.060 A 
ATOM      6  C   UNL     1      22.382 -22.708   0.477  1.00  0.00    +0.281 C 
ATOM      7  O   UNL     1      22.413 -22.838  -0.742  1.00  0.00    -0.267 OA
ATOM      8  N   UNL     1      21.212 -22.674   1.180  1.00  0.00    -0.181 NA
ATOM      9  C   UNL     1      21.103 -23.100   2.400  1.00  0.00    +0.189 C 
ATOM     10  N   UNL     1      19.883 -23.055   3.055  1.00  0.00    -0.345 N 
ATOM     11  C   UNL     1      19.597 -23.689   4.353  1.00  0.00    +0.134 C 
ATOM     12  C   UNL     1      18.096 -24.027   4.522  1.00  0.00    +0.106 C 
ATOM     13  N   UNL     1      17.149 -22.915   4.310  1.00  0.00    -0.300 NA
ATOM     14  C   UNL     1      17.759 -21.849   3.489  1.00  0.00    +0.106 C 
ATOM     15  C   UNL     1      18.735 -22.380   2.421  1.00  0.00    +0.134 C 
ATOM     16  S   UNL     1      22.479 -23.735   3.296  1.00  0.00    -0.098 SA
ATOM     17  C   UNL     1      23.821 -22.886   2.497  1.00  0.00    +0.051 A 
ENDROOT
BRANCH   1  18
ATOM     18  C   UNL     1      25.301 -23.073   4.535  1.00  0.00    +0.015 C 
ATOM     19  C   UNL     1      26.311 -22.586   5.272  1.00  0.00    +0.071 C 
BRANCH  19  20
ATOM     20  C   UNL     1      26.478 -23.045   6.669  1.00  0.00    +0.241 C 
ATOM     21  N   UNL     1      27.771 -23.093   7.081  1.00  0.00    -0.366 N 
ATOM     22  O   UNL     1      25.551 -23.359   7.402  1.00  0.00    -0.270 OA
ATOM     23  H   UNL     1      28.563 -22.850   6.504  1.00  0.00    +0.159 HD
ATOM     24  H   UNL     1      27.943 -23.406   8.028  1.00  0.00    +0.159 HD
ENDBRANCH  19  20
ENDBRANCH   1  18
BRANCH   3  25
ATOM     25  C   UNL     1      27.092 -20.994   0.353  1.00  0.00    +0.416 C 
ATOM     26  F   UNL     1      27.875 -21.910  -0.282  1.00  0.00    -0.166 F 
ATOM     27  F   UNL     1      27.928 -20.283   1.156  1.00  0.00    -0.166 F 
ATOM     28  F   UNL     1      26.664 -20.134  -0.609  1.00  0.00    -0.166 F 
ENDBRANCH   3  25
BRANCH  13  29
ATOM     29  C   UNL     1      16.578 -22.373   5.550  1.00  0.00    +0.088 C 
BRANCH  29  30
ATOM     30  C   UNL     1      15.914 -20.983   5.398  1.00  0.00    +0.003 C 
ATOM     31  C   UNL     1      14.394 -21.094   5.156  1.00  0.00    +0.005 C 
ATOM     32  C   UNL     1      16.209 -20.008   6.542  1.00  0.00    +0.005 C 
ATOM     33  C   UNL     1      13.625 -19.809   5.477  1.00  0.00    +0.000 C 
ATOM     34  C   UNL     1      15.708 -18.594   6.226  1.00  0.00    +0.000 C 
ATOM     35  C   UNL     1      14.487 -18.567   5.307  1.00  0.00    +0.000 C 
ENDBRANCH  29  30
ENDBRANCH  13  29
TORSDOF 5
ENDMDL
