MODEL 1
REMARK VINA RESULT:    -8.824      0.000      0.000
REMARK INTER + INTRA:         -13.706
REMARK INTER:                 -12.693
REMARK INTRA:                  -1.013
REMARK UNBOUND:                -1.013
REMARK SMILES CCOc1ccc(CNc2nc3cc(C(F)(F)F)ccc3nc2C(=O)O)cc1
REMARK SMILES IDX 8 1 7 2 4 3 5 4 28 5 6 6 27 7 3 8 2 9 1 10 9 11 10 13 11 14
REMARK SMILES IDX 23 15 12 16 22 17 13 18 21 19 14 20 20 21 19 22 24 23 25 24
REMARK SMILES IDX 26 25 15 27 16 28 17 29 18 30
REMARK H PARENT 9 12 26 26
ROOT
ATOM      1  C   UNL     1      16.825 -22.569   1.100  1.00  0.00    +0.150 C 
ENDROOT
BRANCH   1   2
ATOM      2  C   UNL     1      17.387 -22.087  -0.218  1.00  0.00    -0.029 A 
ATOM      3  C   UNL     1      18.446 -21.221  -2.682  1.00  0.00    +0.119 A 
ATOM      4  C   UNL     1      19.293 -21.552  -1.622  1.00  0.00    +0.047 A 
ATOM      5  C   UNL     1      17.066 -21.330  -2.509  1.00  0.00    +0.047 A 
ATOM      6  C   UNL     1      18.772 -21.985  -0.400  1.00  0.00    +0.009 A 
ATOM      7  C   UNL     1      16.540 -21.764  -1.286  1.00  0.00    +0.009 A 
BRANCH   3   8
ATOM      8  O   UNL     1      19.086 -20.812  -3.819  1.00  0.00    -0.494 OA
BRANCH   8   9
ATOM      9  C   UNL     1      20.041 -21.707  -4.384  1.00  0.00    +0.226 C 
ATOM     10  C   UNL     1      20.311 -21.265  -5.811  1.00  0.00    +0.049 C 
ENDBRANCH   8   9
ENDBRANCH   3   8
ENDBRANCH   1   2
BRANCH   1  11
ATOM     11  N   UNL     1      17.744 -22.205   2.168  1.00  0.00    -0.364 N 
ATOM     12  H   UNL     1      18.333 -22.988   2.462  1.00  0.00    +0.162 HD
BRANCH  11  13
ATOM     13  C   UNL     1      17.167 -21.560   3.272  1.00  0.00    +0.160 A 
ATOM     14  N   UNL     1      16.188 -20.650   3.044  1.00  0.00    -0.227 NA
ATOM     15  C   UNL     1      17.648 -21.732   4.580  1.00  0.00    +0.191 A 
ATOM     16  C   UNL     1      15.711 -19.947   4.088  1.00  0.00    +0.092 A 
ATOM     17  N   UNL     1      17.174 -21.033   5.652  1.00  0.00    -0.236 NA
ATOM     18  C   UNL     1      14.708 -19.009   3.876  1.00  0.00    +0.043 A 
ATOM     19  C   UNL     1      16.209 -20.138   5.397  1.00  0.00    +0.090 A 
ATOM     20  C   UNL     1      14.169 -18.249   4.927  1.00  0.00    +0.058 A 
ATOM     21  C   UNL     1      15.684 -19.382   6.437  1.00  0.00    +0.031 A 
ATOM     22  C   UNL     1      14.676 -18.441   6.215  1.00  0.00    +0.015 A 
BRANCH  15  23
ATOM     23  C   UNL     1      18.679 -22.769   4.865  1.00  0.00    +0.358 C 
ATOM     24  O   UNL     1      18.706 -23.902   4.413  1.00  0.00    -0.244 OA
BRANCH  23  25
ATOM     25  O   UNL     1      19.628 -22.350   5.729  1.00  0.00    -0.476 OA
ATOM     26  H   UNL     1      19.390 -21.423   5.934  1.00  0.00    +0.297 HD
ENDBRANCH  23  25
ENDBRANCH  15  23
BRANCH  20  27
ATOM     27  C   UNL     1      13.097 -17.223   4.654  1.00  0.00    +0.416 C 
ATOM     28  F   UNL     1      13.166 -16.165   5.505  1.00  0.00    -0.166 F 
ATOM     29  F   UNL     1      13.171 -16.704   3.398  1.00  0.00    -0.166 F 
ATOM     30  F   UNL     1      11.837 -17.723   4.776  1.00  0.00    -0.166 F 
ENDBRANCH  20  27
ENDBRANCH  11  13
ENDBRANCH   1  11
TORSDOF 8
ENDMDL
MODEL 2
REMARK VINA RESULT:    -8.776      3.597      7.411
REMARK INTER + INTRA:         -13.636
REMARK INTER:                 -12.564
REMARK INTRA:                  -1.072
REMARK UNBOUND:                -1.013
REMARK SMILES CCOc1ccc(CNc2nc3cc(C(F)(F)F)ccc3nc2C(=O)O)cc1
REMARK SMILES IDX 8 1 7 2 4 3 5 4 28 5 6 6 27 7 3 8 2 9 1 10 9 11 10 13 11 14
REMARK SMILES IDX 23 15 12 16 22 17 13 18 21 19 14 20 20 21 19 22 24 23 25 24
REMARK SMILES IDX 26 25 15 27 16 28 17 29 18 30
REMARK H PARENT 9 12 26 26
ROOT
ATOM      1  C   UNL     1      17.281 -22.873   5.065  1.00  0.00    +0.150 C 
ENDROOT
BRANCH   1   2
ATOM      2  C   UNL     1      16.412 -21.664   5.324  1.00  0.00    -0.029 A 
ATOM      3  C   UNL     1      14.814 -19.390   5.787  1.00  0.00    +0.119 A 
ATOM      4  C   UNL     1      16.061 -19.518   6.402  1.00  0.00    +0.047 A 
ATOM      5  C   UNL     1      14.370 -20.399   4.934  1.00  0.00    +0.047 A 
ATOM      6  C   UNL     1      16.858 -20.642   6.172  1.00  0.00    +0.009 A 
ATOM      7  C   UNL     1      15.165 -21.528   4.701  1.00  0.00    +0.009 A 
BRANCH   3   8
ATOM      8  O   UNL     1      14.139 -18.242   6.099  1.00  0.00    -0.494 OA
BRANCH   8   9
ATOM      9  C   UNL     1      12.736 -18.224   5.845  1.00  0.00    +0.226 C 
ATOM     10  C   UNL     1      12.448 -17.082   4.887  1.00  0.00    +0.049 C 
ENDBRANCH   8   9
ENDBRANCH   3   8
ENDBRANCH   1   2
BRANCH   1  11
ATOM     11  N   UNL     1      18.653 -22.435   4.858  1.00  0.00    -0.364 N 
ATOM     12  H   UNL     1      18.871 -21.574   5.365  1.00  0.00    +0.162 HD
BRANCH  11  13
ATOM     13  C   UNL     1      19.071 -22.357   3.521  1.00  0.00    +0.160 A 
ATOM     14  N   UNL     1      18.368 -21.564   2.674  1.00  0.00    -0.227 NA
ATOM     15  C   UNL     1      20.104 -23.158   3.008  1.00  0.00    +0.191 A 
ATOM     16  C   UNL     1      18.696 -21.574   1.368  1.00  0.00    +0.092 A 
ATOM     17  N   UNL     1      20.453 -23.177   1.688  1.00  0.00    -0.236 NA
ATOM     18  C   UNL     1      17.988 -20.769   0.484  1.00  0.00    +0.043 A 
ATOM     19  C   UNL     1      19.740 -22.386   0.874  1.00  0.00    +0.090 A 
ATOM     20  C   UNL     1      18.287 -20.734  -0.888  1.00  0.00    +0.058 A 
ATOM     21  C   UNL     1      20.032 -22.361  -0.484  1.00  0.00    +0.031 A 
ATOM     22  C   UNL     1      19.316 -21.549  -1.366  1.00  0.00    +0.015 A 
BRANCH  15  23
ATOM     23  C   UNL     1      20.930 -23.990   3.927  1.00  0.00    +0.358 C 
ATOM     24  O   UNL     1      20.945 -25.209   3.977  1.00  0.00    -0.244 OA
BRANCH  23  25
ATOM     25  O   UNL     1      21.690 -23.257   4.767  1.00  0.00    -0.476 OA
ATOM     26  H   UNL     1      22.545 -23.150   4.303  1.00  0.00    +0.297 HD
ENDBRANCH  23  25
ENDBRANCH  15  23
BRANCH  20  27
ATOM     27  C   UNL     1      17.481 -19.864  -1.821  1.00  0.00    +0.416 C 
ATOM     28  F   UNL     1      16.142 -20.037  -1.660  1.00  0.00    -0.166 F 
ATOM     29  F   UNL     1      17.716 -18.536  -1.640  1.00  0.00    -0.166 F 
ATOM     30  F   UNL     1      17.737 -20.112  -3.135  1.00  0.00    -0.166 F 
ENDBRANCH  20  27
ENDBRANCH  11  13
ENDBRANCH   1  11
TORSDOF 8
ENDMDL
MODEL 3
REMARK VINA RESULT:    -8.699      2.612      5.419
REMARK INTER + INTRA:         -13.526
REMARK INTER:                 -12.423
REMARK INTRA:                  -1.103
REMARK UNBOUND:                -1.013
REMARK SMILES CCOc1ccc(CNc2nc3cc(C(F)(F)F)ccc3nc2C(=O)O)cc1
REMARK SMILES IDX 8 1 7 2 4 3 5 4 28 5 6 6 27 7 3 8 2 9 1 10 9 11 10 13 11 14
REMARK SMILES IDX 23 15 12 16 22 17 13 18 21 19 14 20 20 21 19 22 24 23 25 24
REMARK SMILES IDX 26 25 15 27 16 28 17 29 18 30
REMARK H PARENT 9 12 26 26
ROOT
ATOM      1  C   UNL     1      17.254 -22.332   1.350  1.00  0.00    +0.150 C 
ENDROOT
BRANCH   1   2
ATOM      2  C   UNL     1      18.362 -22.863   2.231  1.00  0.00    -0.029 A 
ATOM      3  C   UNL     1      20.436 -23.821   3.880  1.00  0.00    +0.119 A 
ATOM      4  C   UNL     1      20.724 -23.242   2.643  1.00  0.00    +0.047 A 
ATOM      5  C   UNL     1      19.107 -23.915   4.295  1.00  0.00    +0.047 A 
ATOM      6  C   UNL     1      19.698 -22.762   1.824  1.00  0.00    +0.009 A 
ATOM      7  C   UNL     1      18.077 -23.436   3.477  1.00  0.00    +0.009 A 
BRANCH   3   8
ATOM      8  O   UNL     1      21.531 -24.248   4.580  1.00  0.00    -0.494 OA
BRANCH   8   9
ATOM      9  C   UNL     1      22.810 -23.855   4.087  1.00  0.00    +0.226 C 
ATOM     10  C   UNL     1      23.687 -25.092   4.021  1.00  0.00    +0.049 C 
ENDBRANCH   8   9
ENDBRANCH   3   8
ENDBRANCH   1   2
BRANCH   1  11
ATOM     11  N   UNL     1      17.672 -21.060   0.780  1.00  0.00    -0.364 N 
ATOM     12  H   UNL     1      18.665 -20.869   0.933  1.00  0.00    +0.162 HD
BRANCH  11  13
ATOM     13  C   UNL     1      16.882 -19.953   1.121  1.00  0.00    +0.160 A 
ATOM     14  N   UNL     1      16.265 -19.952   2.328  1.00  0.00    -0.227 NA
ATOM     15  C   UNL     1      16.612 -18.913   0.216  1.00  0.00    +0.191 A 
ATOM     16  C   UNL     1      15.417 -18.946   2.614  1.00  0.00    +0.092 A 
ATOM     17  N   UNL     1      15.760 -17.882   0.489  1.00  0.00    -0.236 NA
ATOM     18  C   UNL     1      14.774 -18.926   3.846  1.00  0.00    +0.043 A 
ATOM     19  C   UNL     1      15.162 -17.909   1.688  1.00  0.00    +0.090 A 
ATOM     20  C   UNL     1      13.883 -17.901   4.201  1.00  0.00    +0.058 A 
ATOM     21  C   UNL     1      14.275 -16.898   2.033  1.00  0.00    +0.031 A 
ATOM     22  C   UNL     1      13.632 -16.886   3.273  1.00  0.00    +0.015 A 
BRANCH  15  23
ATOM     23  C   UNL     1      17.325 -18.859  -1.092  1.00  0.00    +0.358 C 
ATOM     24  O   UNL     1      18.059 -17.963  -1.475  1.00  0.00    -0.244 OA
BRANCH  23  25
ATOM     25  O   UNL     1      17.069 -19.924  -1.880  1.00  0.00    -0.476 OA
ATOM     26  H   UNL     1      17.644 -20.637  -1.534  1.00  0.00    +0.297 HD
ENDBRANCH  23  25
ENDBRANCH  15  23
BRANCH  20  27
ATOM     27  C   UNL     1      13.186 -17.927   5.538  1.00  0.00    +0.416 C 
ATOM     28  F   UNL     1      14.022 -18.286   6.549  1.00  0.00    -0.166 F 
ATOM     29  F   UNL     1      12.668 -16.717   5.888  1.00  0.00    -0.166 F 
ATOM     30  F   UNL     1      12.145 -18.803   5.581  1.00  0.00    -0.166 F 
ENDBRANCH  20  27
ENDBRANCH  11  13
ENDBRANCH   1  11
TORSDOF 8
ENDMDL
MODEL 4
REMARK VINA RESULT:    -8.623      3.133      5.297
REMARK INTER + INTRA:         -13.417
REMARK INTER:                 -12.441
REMARK INTRA:                  -0.976
REMARK UNBOUND:                -1.013
REMARK SMILES CCOc1ccc(CNc2nc3cc(C(F)(F)F)ccc3nc2C(=O)O)cc1
REMARK SMILES IDX 8 1 7 2 4 3 5 4 28 5 6 6 27 7 3 8 2 9 1 10 9 11 10 13 11 14
REMARK SMILES IDX 23 15 12 16 22 17 13 18 21 19 14 20 20 21 19 22 24 23 25 24
REMARK SMILES IDX 26 25 15 27 16 28 17 29 18 30
REMARK H PARENT 9 12 26 26
ROOT
ATOM      1  C   UNL     1      18.737 -21.918   1.409  1.00  0.00    +0.150 C 
ENDROOT
BRANCH   1   2
ATOM      2  C   UNL     1      18.230 -23.329   1.215  1.00  0.00    -0.029 A 
ATOM      3  C   UNL     1      17.300 -25.959   0.821  1.00  0.00    +0.119 A 
ATOM      4  C   UNL     1      16.684 -24.884   0.177  1.00  0.00    +0.047 A 
ATOM      5  C   UNL     1      18.388 -25.716   1.659  1.00  0.00    +0.047 A 
ATOM      6  C   UNL     1      17.145 -23.579   0.367  1.00  0.00    +0.009 A 
ATOM      7  C   UNL     1      18.852 -24.410   1.852  1.00  0.00    +0.009 A 
BRANCH   3   8
ATOM      8  O   UNL     1      16.749 -27.181   0.547  1.00  0.00    -0.494 OA
BRANCH   8   9
ATOM      9  C   UNL     1      16.943 -28.212   1.513  1.00  0.00    +0.226 C 
ATOM     10  C   UNL     1      15.884 -29.275   1.282  1.00  0.00    +0.049 C 
ENDBRANCH   8   9
ENDBRANCH   3   8
ENDBRANCH   1   2
BRANCH   1  11
ATOM     11  N   UNL     1      18.152 -21.060   0.390  1.00  0.00    -0.364 N 
ATOM     12  H   UNL     1      18.854 -20.665  -0.240  1.00  0.00    +0.162 HD
BRANCH  11  13
ATOM     13  C   UNL     1      17.274 -20.072   0.858  1.00  0.00    +0.160 A 
ATOM     14  N   UNL     1      16.732 -20.227   2.092  1.00  0.00    -0.227 NA
ATOM     15  C   UNL     1      16.847 -19.002   0.054  1.00  0.00    +0.191 A 
ATOM     16  C   UNL     1      15.804 -19.341   2.500  1.00  0.00    +0.092 A 
ATOM     17  N   UNL     1      15.911 -18.091   0.452  1.00  0.00    -0.236 NA
ATOM     18  C   UNL     1      15.237 -19.482   3.760  1.00  0.00    +0.043 A 
ATOM     19  C   UNL     1      15.391 -18.271   1.674  1.00  0.00    +0.090 A 
ATOM     20  C   UNL     1      14.267 -18.587   4.241  1.00  0.00    +0.058 A 
ATOM     21  C   UNL     1      14.426 -17.389   2.144  1.00  0.00    +0.031 A 
ATOM     22  C   UNL     1      13.860 -17.538   3.412  1.00  0.00    +0.015 A 
BRANCH  15  23
ATOM     23  C   UNL     1      17.471 -18.775  -1.279  1.00  0.00    +0.358 C 
ATOM     24  O   UNL     1      18.093 -17.784  -1.624  1.00  0.00    -0.244 OA
BRANCH  23  25
ATOM     25  O   UNL     1      17.271 -19.796  -2.139  1.00  0.00    -0.476 OA
ATOM     26  H   UNL     1      18.168 -20.103  -2.379  1.00  0.00    +0.297 HD
ENDBRANCH  23  25
ENDBRANCH  15  23
BRANCH  20  27
ATOM     27  C   UNL     1      13.657 -18.786   5.606  1.00  0.00    +0.416 C 
ATOM     28  F   UNL     1      14.206 -17.966   6.541  1.00  0.00    -0.166 F 
ATOM     29  F   UNL     1      12.318 -18.541   5.627  1.00  0.00    -0.166 F 
ATOM     30  F   UNL     1      13.810 -20.053   6.080  1.00  0.00    -0.166 F 
ENDBRANCH  20  27
ENDBRANCH  11  13
ENDBRANCH   1  11
TORSDOF 8
ENDMDL
MODEL 5
REMARK VINA RESULT:    -8.106      3.411      5.465
REMARK INTER + INTRA:         -12.673
REMARK INTER:                 -11.548
REMARK INTRA:                  -1.126
REMARK UNBOUND:                -1.013
REMARK SMILES CCOc1ccc(CNc2nc3cc(C(F)(F)F)ccc3nc2C(=O)O)cc1
REMARK SMILES IDX 8 1 7 2 4 3 5 4 28 5 6 6 27 7 3 8 2 9 1 10 9 11 10 13 11 14
REMARK SMILES IDX 23 15 12 16 22 17 13 18 21 19 14 20 20 21 19 22 24 23 25 24
REMARK SMILES IDX 26 25 15 27 16 28 17 29 18 30
REMARK H PARENT 9 12 26 26
ROOT
ATOM      1  C   UNL     1      18.077 -21.994  -1.204  1.00  0.00    +0.150 C 
ENDROOT
BRANCH   1   2
ATOM      2  C   UNL     1      18.067 -23.285  -0.417  1.00  0.00    -0.029 A 
ATOM      3  C   UNL     1      18.040 -25.710   1.018  1.00  0.00    +0.119 A 
ATOM      4  C   UNL     1      16.853 -25.164   0.526  1.00  0.00    +0.047 A 
ATOM      5  C   UNL     1      19.243 -25.043   0.786  1.00  0.00    +0.047 A 
ATOM      6  C   UNL     1      16.863 -23.964  -0.190  1.00  0.00    +0.009 A 
ATOM      7  C   UNL     1      19.257 -23.840   0.070  1.00  0.00    +0.009 A 
BRANCH   3   8
ATOM      8  O   UNL     1      17.888 -26.886   1.700  1.00  0.00    -0.494 OA
BRANCH   8   9
ATOM      9  C   UNL     1      17.267 -27.964   1.004  1.00  0.00    +0.226 C 
ATOM     10  C   UNL     1      18.359 -28.798   0.360  1.00  0.00    +0.049 C 
ENDBRANCH   8   9
ENDBRANCH   3   8
ENDBRANCH   1   2
BRANCH   1  11
ATOM     11  N   UNL     1      18.632 -20.938  -0.372  1.00  0.00    -0.364 N 
ATOM     12  H   UNL     1      19.545 -21.185   0.018  1.00  0.00    +0.162 HD
BRANCH  11  13
ATOM     13  C   UNL     1      17.777 -20.429   0.616  1.00  0.00    +0.160 A 
ATOM     14  N   UNL     1      17.718 -21.073   1.807  1.00  0.00    -0.227 NA
ATOM     15  C   UNL     1      16.898 -19.361   0.373  1.00  0.00    +0.191 A 
ATOM     16  C   UNL     1      16.818 -20.657   2.717  1.00  0.00    +0.092 A 
ATOM     17  N   UNL     1      15.982 -18.921   1.285  1.00  0.00    -0.236 NA
ATOM     18  C   UNL     1      16.741 -21.303   3.945  1.00  0.00    +0.043 A 
ATOM     19  C   UNL     1      15.944 -19.578   2.452  1.00  0.00    +0.090 A 
ATOM     20  C   UNL     1      15.825 -20.911   4.934  1.00  0.00    +0.058 A 
ATOM     21  C   UNL     1      15.031 -19.193   3.425  1.00  0.00    +0.031 A 
ATOM     22  C   UNL     1      14.960 -19.849   4.656  1.00  0.00    +0.015 A 
BRANCH  15  23
ATOM     23  C   UNL     1      16.985 -18.598  -0.904  1.00  0.00    +0.358 C 
ATOM     24  O   UNL     1      18.010 -18.218  -1.447  1.00  0.00    -0.244 OA
BRANCH  23  25
ATOM     25  O   UNL     1      15.778 -18.321  -1.439  1.00  0.00    -0.476 OA
ATOM     26  H   UNL     1      15.905 -17.481  -1.925  1.00  0.00    +0.297 HD
ENDBRANCH  23  25
ENDBRANCH  15  23
BRANCH  20  27
ATOM     27  C   UNL     1      15.755 -21.653   6.246  1.00  0.00    +0.416 C 
ATOM     28  F   UNL     1      16.387 -22.856   6.192  1.00  0.00    -0.166 F 
ATOM     29  F   UNL     1      16.333 -20.968   7.271  1.00  0.00    -0.166 F 
ATOM     30  F   UNL     1      14.480 -21.914   6.644  1.00  0.00    -0.166 F 
ENDBRANCH  20  27
ENDBRANCH  11  13
ENDBRANCH   1  11
TORSDOF 8
ENDMDL
MODEL 6
REMARK VINA RESULT:    -7.930      1.679      2.187
REMARK INTER + INTRA:         -12.420
REMARK INTER:                 -11.392
REMARK INTRA:                  -1.028
REMARK UNBOUND:                -1.013
REMARK SMILES CCOc1ccc(CNc2nc3cc(C(F)(F)F)ccc3nc2C(=O)O)cc1
REMARK SMILES IDX 8 1 7 2 4 3 5 4 28 5 6 6 27 7 3 8 2 9 1 10 9 11 10 13 11 14
REMARK SMILES IDX 23 15 12 16 22 17 13 18 21 19 14 20 20 21 19 22 24 23 25 24
REMARK SMILES IDX 26 25 15 27 16 28 17 29 18 30
REMARK H PARENT 9 12 26 26
ROOT
ATOM      1  C   UNL     1      18.149 -21.305   1.054  1.00  0.00    +0.150 C 
ENDROOT
BRANCH   1   2
ATOM      2  C   UNL     1      19.332 -21.936   0.356  1.00  0.00    -0.029 A 
ATOM      3  C   UNL     1      21.550 -23.080  -0.953  1.00  0.00    +0.119 A 
ATOM      4  C   UNL     1      20.520 -22.491  -1.687  1.00  0.00    +0.047 A 
ATOM      5  C   UNL     1      21.473 -23.091   0.440  1.00  0.00    +0.047 A 
ATOM      6  C   UNL     1      19.420 -21.919  -1.041  1.00  0.00    +0.009 A 
ATOM      7  C   UNL     1      20.373 -22.520   1.090  1.00  0.00    +0.009 A 
BRANCH   3   8
ATOM      8  O   UNL     1      22.565 -23.601  -1.709  1.00  0.00    -0.494 OA
BRANCH   8   9
ATOM      9  C   UNL     1      22.571 -23.279  -3.097  1.00  0.00    +0.226 C 
ATOM     10  C   UNL     1      22.637 -24.579  -3.879  1.00  0.00    +0.049 C 
ENDBRANCH   8   9
ENDBRANCH   3   8
ENDBRANCH   1   2
BRANCH   1  11
ATOM     11  N   UNL     1      17.706 -22.184   2.124  1.00  0.00    -0.364 N 
ATOM     12  H   UNL     1      17.106 -22.941   1.787  1.00  0.00    +0.162 HD
BRANCH  11  13
ATOM     13  C   UNL     1      17.145 -21.548   3.240  1.00  0.00    +0.160 A 
ATOM     14  N   UNL     1      16.164 -20.634   3.032  1.00  0.00    -0.227 NA
ATOM     15  C   UNL     1      17.643 -21.730   4.541  1.00  0.00    +0.191 A 
ATOM     16  C   UNL     1      15.701 -19.940   4.089  1.00  0.00    +0.092 A 
ATOM     17  N   UNL     1      17.182 -21.039   5.625  1.00  0.00    -0.236 NA
ATOM     18  C   UNL     1      14.696 -18.999   3.897  1.00  0.00    +0.043 A 
ATOM     19  C   UNL     1      16.215 -20.141   5.389  1.00  0.00    +0.090 A 
ATOM     20  C   UNL     1      14.171 -18.247   4.960  1.00  0.00    +0.058 A 
ATOM     21  C   UNL     1      15.704 -19.393   6.442  1.00  0.00    +0.031 A 
ATOM     22  C   UNL     1      14.694 -18.450   6.240  1.00  0.00    +0.015 A 
BRANCH  15  23
ATOM     23  C   UNL     1      18.676 -22.770   4.805  1.00  0.00    +0.358 C 
ATOM     24  O   UNL     1      18.740 -23.871   4.282  1.00  0.00    -0.244 OA
BRANCH  23  25
ATOM     25  O   UNL     1      19.579 -22.396   5.735  1.00  0.00    -0.476 OA
ATOM     26  H   UNL     1      19.548 -23.101   6.414  1.00  0.00    +0.297 HD
ENDBRANCH  23  25
ENDBRANCH  15  23
BRANCH  20  27
ATOM     27  C   UNL     1      13.096 -17.219   4.709  1.00  0.00    +0.416 C 
ATOM     28  F   UNL     1      13.131 -16.205   5.615  1.00  0.00    -0.166 F 
ATOM     29  F   UNL     1      13.200 -16.635   3.483  1.00  0.00    -0.166 F 
ATOM     30  F   UNL     1      11.838 -17.735   4.770  1.00  0.00    -0.166 F 
ENDBRANCH  20  27
ENDBRANCH  11  13
ENDBRANCH   1  11
TORSDOF 8
ENDMDL
MODEL 7
REMARK VINA RESULT:    -7.848      2.619      3.506
REMARK INTER + INTRA:         -12.302
REMARK INTER:                 -10.979
REMARK INTRA:                  -1.324
REMARK UNBOUND:                -1.013
REMARK SMILES CCOc1ccc(CNc2nc3cc(C(F)(F)F)ccc3nc2C(=O)O)cc1
REMARK SMILES IDX 8 1 7 2 4 3 5 4 28 5 6 6 27 7 3 8 2 9 1 10 9 11 10 13 11 14
REMARK SMILES IDX 23 15 12 16 22 17 13 18 21 19 14 20 20 21 19 22 24 23 25 24
REMARK SMILES IDX 26 25 15 27 16 28 17 29 18 30
REMARK H PARENT 9 12 26 26
ROOT
ATOM      1  C   UNL     1      17.693 -22.202   0.396  1.00  0.00    +0.150 C 
ENDROOT
BRANCH   1   2
ATOM      2  C   UNL     1      17.915 -23.698   0.401  1.00  0.00    -0.029 A 
ATOM      3  C   UNL     1      18.341 -26.483   0.443  1.00  0.00    +0.119 A 
ATOM      4  C   UNL     1      19.420 -25.601   0.353  1.00  0.00    +0.047 A 
ATOM      5  C   UNL     1      17.046 -25.968   0.518  1.00  0.00    +0.047 A 
ATOM      6  C   UNL     1      19.213 -24.219   0.336  1.00  0.00    +0.009 A 
ATOM      7  C   UNL     1      16.835 -24.584   0.501  1.00  0.00    +0.009 A 
BRANCH   3   8
ATOM      8  O   UNL     1      18.684 -27.807   0.450  1.00  0.00    -0.494 OA
BRANCH   8   9
ATOM      9  C   UNL     1      19.918 -28.161  -0.170  1.00  0.00    +0.226 C 
ATOM     10  C   UNL     1      19.614 -29.125  -1.303  1.00  0.00    +0.049 C 
ENDBRANCH   8   9
ENDBRANCH   3   8
ENDBRANCH   1   2
BRANCH   1  11
ATOM     11  N   UNL     1      18.335 -21.625   1.567  1.00  0.00    -0.364 N 
ATOM     12  H   UNL     1      19.162 -22.151   1.861  1.00  0.00    +0.162 HD
BRANCH  11  13
ATOM     13  C   UNL     1      17.490 -21.357   2.654  1.00  0.00    +0.160 A 
ATOM     14  N   UNL     1      16.612 -20.330   2.546  1.00  0.00    -0.227 NA
ATOM     15  C   UNL     1      17.606 -22.031   3.881  1.00  0.00    +0.191 A 
ATOM     16  C   UNL     1      15.878 -19.998   3.625  1.00  0.00    +0.092 A 
ATOM     17  N   UNL     1      16.867 -21.712   4.984  1.00  0.00    -0.236 NA
ATOM     18  C   UNL     1      14.972 -18.948   3.535  1.00  0.00    +0.043 A 
ATOM     19  C   UNL     1      16.010 -20.691   4.849  1.00  0.00    +0.090 A 
ATOM     20  C   UNL     1      14.178 -18.559   4.626  1.00  0.00    +0.058 A 
ATOM     21  C   UNL     1      15.231 -20.303   5.933  1.00  0.00    +0.031 A 
ATOM     22  C   UNL     1      14.324 -19.246   5.834  1.00  0.00    +0.015 A 
BRANCH  15  23
ATOM     23  C   UNL     1      18.518 -23.202   4.006  1.00  0.00    +0.358 C 
ATOM     24  O   UNL     1      18.194 -24.377   3.948  1.00  0.00    -0.244 OA
BRANCH  23  25
ATOM     25  O   UNL     1      19.803 -22.852   4.224  1.00  0.00    -0.476 OA
ATOM     26  H   UNL     1      19.800 -22.414   5.099  1.00  0.00    +0.297 HD
ENDBRANCH  23  25
ENDBRANCH  15  23
BRANCH  20  27
ATOM     27  C   UNL     1      13.222 -17.399   4.498  1.00  0.00    +0.416 C 
ATOM     28  F   UNL     1      11.944 -17.747   4.806  1.00  0.00    -0.166 F 
ATOM     29  F   UNL     1      13.540 -16.359   5.317  1.00  0.00    -0.166 F 
ATOM     30  F   UNL     1      13.179 -16.880   3.239  1.00  0.00    -0.166 F 
ENDBRANCH  20  27
ENDBRANCH  11  13
ENDBRANCH   1  11
TORSDOF 8
ENDMDL
MODEL 8
REMARK VINA RESULT:    -7.667      3.553      4.972
REMARK INTER + INTRA:         -12.042
REMARK INTER:                 -11.074
REMARK INTRA:                  -0.968
REMARK UNBOUND:                -1.013
REMARK SMILES CCOc1ccc(CNc2nc3cc(C(F)(F)F)ccc3nc2C(=O)O)cc1
REMARK SMILES IDX 8 1 7 2 4 3 5 4 28 5 6 6 27 7 3 8 2 9 1 10 9 11 10 13 11 14
REMARK SMILES IDX 23 15 12 16 22 17 13 18 21 19 14 20 20 21 19 22 24 23 25 24
REMARK SMILES IDX 26 25 15 27 16 28 17 29 18 30
REMARK H PARENT 9 12 26 26
ROOT
ATOM      1  C   UNL     1      19.807 -22.418  -0.621  1.00  0.00    +0.150 C 
ENDROOT
BRANCH   1   2
ATOM      2  C   UNL     1      20.654 -22.734  -1.832  1.00  0.00    -0.029 A 
ATOM      3  C   UNL     1      22.226 -23.292  -4.103  1.00  0.00    +0.119 A 
ATOM      4  C   UNL     1      20.832 -23.305  -4.185  1.00  0.00    +0.047 A 
ATOM      5  C   UNL     1      22.834 -22.994  -2.884  1.00  0.00    +0.047 A 
ATOM      6  C   UNL     1      20.050 -23.025  -3.061  1.00  0.00    +0.009 A 
ATOM      7  C   UNL     1      22.053 -22.713  -1.756  1.00  0.00    +0.009 A 
BRANCH   3   8
ATOM      8  O   UNL     1      22.869 -23.584  -5.275  1.00  0.00    -0.494 OA
BRANCH   8   9
ATOM      9  C   UNL     1      23.913 -22.701  -5.680  1.00  0.00    +0.226 C 
ATOM     10  C   UNL     1      23.277 -21.508  -6.369  1.00  0.00    +0.049 C 
ENDBRANCH   8   9
ENDBRANCH   3   8
ENDBRANCH   1   2
BRANCH   1  11
ATOM     11  N   UNL     1      18.633 -21.671  -1.047  1.00  0.00    -0.364 N 
ATOM     12  H   UNL     1      18.820 -21.075  -1.857  1.00  0.00    +0.162 HD
BRANCH  11  13
ATOM     13  C   UNL     1      17.965 -20.963  -0.037  1.00  0.00    +0.160 A 
ATOM     14  N   UNL     1      17.756 -21.582   1.151  1.00  0.00    -0.227 NA
ATOM     15  C   UNL     1      17.402 -19.694  -0.254  1.00  0.00    +0.191 A 
ATOM     16  C   UNL     1      17.017 -20.950   2.082  1.00  0.00    +0.092 A 
ATOM     17  N   UNL     1      16.655 -19.035   0.680  1.00  0.00    -0.236 NA
ATOM     18  C   UNL     1      16.791 -21.568   3.306  1.00  0.00    +0.043 A 
ATOM     19  C   UNL     1      16.463 -19.673   1.843  1.00  0.00    +0.090 A 
ATOM     20  C   UNL     1      16.032 -20.955   4.317  1.00  0.00    +0.058 A 
ATOM     21  C   UNL     1      15.704 -19.068   2.837  1.00  0.00    +0.031 A 
ATOM     22  C   UNL     1      15.482 -19.696   4.065  1.00  0.00    +0.015 A 
BRANCH  15  23
ATOM     23  C   UNL     1      17.669 -18.967  -1.527  1.00  0.00    +0.358 C 
ATOM     24  O   UNL     1      18.031 -17.807  -1.631  1.00  0.00    -0.244 OA
BRANCH  23  25
ATOM     25  O   UNL     1      17.448 -19.721  -2.624  1.00  0.00    -0.476 OA
ATOM     26  H   UNL     1      16.708 -20.312  -2.378  1.00  0.00    +0.297 HD
ENDBRANCH  23  25
ENDBRANCH  15  23
BRANCH  20  27
ATOM     27  C   UNL     1      15.789 -21.667   5.624  1.00  0.00    +0.416 C 
ATOM     28  F   UNL     1      16.170 -20.922   6.696  1.00  0.00    -0.166 F 
ATOM     29  F   UNL     1      14.478 -21.974   5.823  1.00  0.00    -0.166 F 
ATOM     30  F   UNL     1      16.466 -22.845   5.725  1.00  0.00    -0.166 F 
ENDBRANCH  20  27
ENDBRANCH  11  13
ENDBRANCH   1  11
TORSDOF 8
ENDMDL
MODEL 9
REMARK VINA RESULT:    -7.660      5.455      9.556
REMARK INTER + INTRA:         -12.031
REMARK INTER:                 -10.982
REMARK INTRA:                  -1.049
REMARK UNBOUND:                -1.013
REMARK SMILES CCOc1ccc(CNc2nc3cc(C(F)(F)F)ccc3nc2C(=O)O)cc1
REMARK SMILES IDX 8 1 7 2 4 3 5 4 28 5 6 6 27 7 3 8 2 9 1 10 9 11 10 13 11 14
REMARK SMILES IDX 23 15 12 16 22 17 13 18 21 19 14 20 20 21 19 22 24 23 25 24
REMARK SMILES IDX 26 25 15 27 16 28 17 29 18 30
REMARK H PARENT 9 12 26 26
ROOT
ATOM      1  C   UNL     1      17.677 -21.622   2.207  1.00  0.00    +0.150 C 
ENDROOT
BRANCH   1   2
ATOM      2  C   UNL     1      16.575 -21.091   3.095  1.00  0.00    -0.029 A 
ATOM      3  C   UNL     1      14.498 -20.102   4.722  1.00  0.00    +0.119 A 
ATOM      4  C   UNL     1      15.134 -19.269   3.799  1.00  0.00    +0.047 A 
ATOM      5  C   UNL     1      14.898 -21.434   4.825  1.00  0.00    +0.047 A 
ATOM      6  C   UNL     1      16.162 -19.758   2.988  1.00  0.00    +0.009 A 
ATOM      7  C   UNL     1      15.928 -21.926   4.015  1.00  0.00    +0.009 A 
BRANCH   3   8
ATOM      8  O   UNL     1      13.511 -19.497   5.451  1.00  0.00    -0.494 OA
BRANCH   8   9
ATOM      9  C   UNL     1      13.690 -18.118   5.768  1.00  0.00    +0.226 C 
ATOM     10  C   UNL     1      12.488 -17.357   5.237  1.00  0.00    +0.049 C 
ENDBRANCH   8   9
ENDBRANCH   3   8
ENDBRANCH   1   2
BRANCH   1  11
ATOM     11  N   UNL     1      18.096 -20.571   1.293  1.00  0.00    -0.364 N 
ATOM     12  H   UNL     1      17.432 -19.794   1.258  1.00  0.00    +0.162 HD
BRANCH  11  13
ATOM     13  C   UNL     1      18.454 -20.993   0.004  1.00  0.00    +0.160 A 
ATOM     14  N   UNL     1      19.394 -21.963  -0.115  1.00  0.00    -0.227 NA
ATOM     15  C   UNL     1      17.969 -20.366  -1.155  1.00  0.00    +0.191 A 
ATOM     16  C   UNL     1      19.822 -22.292  -1.349  1.00  0.00    +0.092 A 
ATOM     17  N   UNL     1      18.387 -20.689  -2.414  1.00  0.00    -0.236 NA
ATOM     18  C   UNL     1      20.785 -23.284  -1.493  1.00  0.00    +0.043 A 
ATOM     19  C   UNL     1      19.318 -21.649  -2.502  1.00  0.00    +0.090 A 
ATOM     20  C   UNL     1      21.266 -23.672  -2.754  1.00  0.00    +0.058 A 
ATOM     21  C   UNL     1      19.799 -22.024  -3.750  1.00  0.00    +0.031 A 
ATOM     22  C   UNL     1      20.767 -23.022  -3.886  1.00  0.00    +0.015 A 
BRANCH  15  23
ATOM     23  C   UNL     1      16.893 -19.341  -1.054  1.00  0.00    +0.358 C 
ATOM     24  O   UNL     1      15.832 -19.466  -0.463  1.00  0.00    -0.244 OA
BRANCH  23  25
ATOM     25  O   UNL     1      17.179 -18.203  -1.721  1.00  0.00    -0.476 OA
ATOM     26  H   UNL     1      17.191 -18.461  -2.665  1.00  0.00    +0.297 HD
ENDBRANCH  23  25
ENDBRANCH  15  23
BRANCH  20  27
ATOM     27  C   UNL     1      22.329 -24.737  -2.869  1.00  0.00    +0.416 C 
ATOM     28  F   UNL     1      23.483 -24.384  -2.242  1.00  0.00    -0.166 F 
ATOM     29  F   UNL     1      21.948 -25.924  -2.322  1.00  0.00    -0.166 F 
ATOM     30  F   UNL     1      22.670 -25.013  -4.158  1.00  0.00    -0.166 F 
ENDBRANCH  20  27
ENDBRANCH  11  13
ENDBRANCH   1  11
TORSDOF 8
ENDMDL
