MODEL 1
REMARK VINA RESULT:    -8.163      0.000      0.000
REMARK INTER + INTRA:         -10.614
REMARK INTER:                 -10.310
REMARK INTRA:                  -0.304
REMARK UNBOUND:                -0.304
REMARK SMILES CC(=O)CN1C(=O)NC(C)(c2ccc(S(N)(=O)=O)cc2)C1=O
REMARK SMILES IDX 5 1 6 2 7 3 8 4 9 5 10 6 21 7 22 8 4 10 2 11 3 12 1 13 11 14
REMARK SMILES IDX 12 15 20 16 13 17 19 18 14 19 15 20 17 21 18 22 16 23
REMARK H PARENT 8 9 16 24 16 25
ROOT
ATOM      1  N   UNL     1      14.495 -19.955   5.441  1.00  0.00    -0.254 N 
ATOM      2  C   UNL     1      14.047 -21.151   4.982  1.00  0.00    +0.325 C 
ATOM      3  O   UNL     1      12.908 -21.582   5.039  1.00  0.00    -0.248 OA
ATOM      4  N   UNL     1      15.103 -21.835   4.433  1.00  0.00    -0.319 N 
ATOM      5  C   UNL     1      16.320 -21.049   4.399  1.00  0.00    +0.144 C 
ATOM      6  C   UNL     1      17.409 -21.769   5.198  1.00  0.00    +0.051 C 
ATOM      7  C   UNL     1      15.825 -19.801   5.172  1.00  0.00    +0.261 C 
ATOM      8  O   UNL     1      16.509 -18.835   5.494  1.00  0.00    -0.271 OA
ATOM      9  H   UNL     1      14.970 -22.733   3.989  1.00  0.00    +0.166 HD
ENDROOT
BRANCH   1  10
ATOM     10  C   UNL     1      13.650 -18.940   6.022  1.00  0.00    +0.205 C 
BRANCH  10  11
ATOM     11  C   UNL     1      13.366 -17.859   4.983  1.00  0.00    +0.149 C 
ATOM     12  O   UNL     1      13.787 -17.905   3.827  1.00  0.00    -0.298 OA
ATOM     13  C   UNL     1      12.549 -16.688   5.463  1.00  0.00    +0.089 C 
ENDBRANCH  10  11
ENDBRANCH   1  10
BRANCH   5  14
ATOM     14  C   UNL     1      16.758 -20.677   2.982  1.00  0.00    -0.013 A 
ATOM     15  C   UNL     1      16.099 -19.638   2.293  1.00  0.00    +0.008 A 
ATOM     16  C   UNL     1      17.790 -21.361   2.309  1.00  0.00    +0.008 A 
ATOM     17  C   UNL     1      16.457 -19.291   0.988  1.00  0.00    +0.022 A 
ATOM     18  C   UNL     1      18.154 -21.019   1.002  1.00  0.00    +0.022 A 
ATOM     19  C   UNL     1      17.477 -19.993   0.347  1.00  0.00    +0.082 A 
BRANCH  19  20
ATOM     20  S   UNL     1      17.915 -19.566  -1.316  1.00  0.00    +0.238 S 
ATOM     21  O   UNL     1      17.891 -18.128  -1.441  1.00  0.00    -0.207 OA
ATOM     22  O   UNL     1      19.056 -20.360  -1.710  1.00  0.00    -0.207 OA
BRANCH  20  23
ATOM     23  N   UNL     1      16.607 -20.188  -2.176  1.00  0.00    -0.225 NA
ATOM     24  H   UNL     1      16.482 -21.169  -1.922  1.00  0.00    +0.137 HD
ATOM     25  H   UNL     1      15.750 -19.652  -2.045  1.00  0.00    +0.137 HD
ENDBRANCH  20  23
ENDBRANCH  19  20
ENDBRANCH   5  14
TORSDOF 5
ENDMDL
MODEL 2
REMARK VINA RESULT:    -7.703      2.896      6.258
REMARK INTER + INTRA:         -10.033
REMARK INTER:                  -9.267
REMARK INTRA:                  -0.766
REMARK UNBOUND:                -0.304
REMARK SMILES CC(=O)CN1C(=O)NC(C)(c2ccc(S(N)(=O)=O)cc2)C1=O
REMARK SMILES IDX 5 1 6 2 7 3 8 4 9 5 10 6 21 7 22 8 4 10 2 11 3 12 1 13 11 14
REMARK SMILES IDX 12 15 20 16 13 17 19 18 14 19 15 20 17 21 18 22 16 23
REMARK H PARENT 8 9 16 24 16 25
ROOT
ATOM      1  N   UNL     1      18.194 -22.672   1.236  1.00  0.00    -0.254 N 
ATOM      2  C   UNL     1      19.175 -21.951   1.835  1.00  0.00    +0.325 C 
ATOM      3  O   UNL     1      20.229 -21.589   1.342  1.00  0.00    -0.248 OA
ATOM      4  N   UNL     1      18.799 -21.686   3.129  1.00  0.00    -0.319 N 
ATOM      5  C   UNL     1      17.453 -22.138   3.423  1.00  0.00    +0.144 C 
ATOM      6  C   UNL     1      17.500 -23.147   4.573  1.00  0.00    +0.051 C 
ATOM      7  C   UNL     1      17.143 -22.861   2.088  1.00  0.00    +0.261 C 
ATOM      8  O   UNL     1      16.128 -23.501   1.835  1.00  0.00    -0.271 OA
ATOM      9  H   UNL     1      19.373 -21.116   3.734  1.00  0.00    +0.166 HD
ENDROOT
BRANCH   1  10
ATOM     10  C   UNL     1      18.212 -23.074  -0.149  1.00  0.00    +0.205 C 
BRANCH  10  11
ATOM     11  C   UNL     1      17.624 -21.961  -1.011  1.00  0.00    +0.149 C 
ATOM     12  O   UNL     1      18.268 -20.975  -1.373  1.00  0.00    -0.298 OA
ATOM     13  C   UNL     1      16.173 -22.116  -1.382  1.00  0.00    +0.089 C 
ENDBRANCH  10  11
ENDBRANCH   1  10
BRANCH   5  14
ATOM     14  C   UNL     1      16.472 -20.991   3.665  1.00  0.00    -0.013 A 
ATOM     15  C   UNL     1      15.689 -20.970   4.838  1.00  0.00    +0.008 A 
ATOM     16  C   UNL     1      16.288 -19.950   2.734  1.00  0.00    +0.008 A 
ATOM     17  C   UNL     1      14.765 -19.950   5.076  1.00  0.00    +0.022 A 
ATOM     18  C   UNL     1      15.364 -18.925   2.965  1.00  0.00    +0.022 A 
ATOM     19  C   UNL     1      14.601 -18.939   4.131  1.00  0.00    +0.082 A 
BRANCH  19  20
ATOM     20  S   UNL     1      13.412 -17.659   4.425  1.00  0.00    +0.238 S 
ATOM     21  O   UNL     1      13.095 -17.030   3.164  1.00  0.00    -0.207 OA
ATOM     22  O   UNL     1      12.394 -18.170   5.314  1.00  0.00    -0.207 OA
BRANCH  20  23
ATOM     23  N   UNL     1      14.313 -16.570   5.341  1.00  0.00    -0.225 NA
ATOM     24  H   UNL     1      15.262 -16.933   5.445  1.00  0.00    +0.137 HD
ATOM     25  H   UNL     1      14.310 -15.625   4.957  1.00  0.00    +0.137 HD
ENDBRANCH  20  23
ENDBRANCH  19  20
ENDBRANCH   5  14
TORSDOF 5
ENDMDL
MODEL 3
REMARK VINA RESULT:    -7.696      3.064      6.367
REMARK INTER + INTRA:         -10.024
REMARK INTER:                  -9.290
REMARK INTRA:                  -0.735
REMARK UNBOUND:                -0.304
REMARK SMILES CC(=O)CN1C(=O)NC(C)(c2ccc(S(N)(=O)=O)cc2)C1=O
REMARK SMILES IDX 5 1 6 2 7 3 8 4 9 5 10 6 21 7 22 8 4 10 2 11 3 12 1 13 11 14
REMARK SMILES IDX 12 15 20 16 13 17 19 18 14 19 15 20 17 21 18 22 16 23
REMARK H PARENT 8 9 16 24 16 25
ROOT
ATOM      1  N   UNL     1      18.420 -22.750   1.134  1.00  0.00    -0.254 N 
ATOM      2  C   UNL     1      19.413 -22.080   1.773  1.00  0.00    +0.325 C 
ATOM      3  O   UNL     1      20.409 -21.587   1.273  1.00  0.00    -0.248 OA
ATOM      4  N   UNL     1      19.127 -22.046   3.115  1.00  0.00    -0.319 N 
ATOM      5  C   UNL     1      17.829 -22.612   3.426  1.00  0.00    +0.144 C 
ATOM      6  C   UNL     1      18.008 -23.787   4.390  1.00  0.00    +0.051 C 
ATOM      7  C   UNL     1      17.448 -23.130   2.016  1.00  0.00    +0.261 C 
ATOM      8  O   UNL     1      16.444 -23.775   1.733  1.00  0.00    -0.271 OA
ATOM      9  H   UNL     1      19.721 -21.549   3.764  1.00  0.00    +0.166 HD
ENDROOT
BRANCH   1  10
ATOM     10  C   UNL     1      18.347 -22.925  -0.296  1.00  0.00    +0.205 C 
BRANCH  10  11
ATOM     11  C   UNL     1      17.433 -21.860  -0.894  1.00  0.00    +0.149 C 
ATOM     12  O   UNL     1      17.675 -20.654  -0.841  1.00  0.00    -0.298 OA
ATOM     13  C   UNL     1      16.172 -22.369  -1.543  1.00  0.00    +0.089 C 
ENDBRANCH  10  11
ENDBRANCH   1  10
BRANCH   5  14
ATOM     14  C   UNL     1      16.821 -21.574   3.918  1.00  0.00    -0.013 A 
ATOM     15  C   UNL     1      16.512 -20.457   3.115  1.00  0.00    +0.008 A 
ATOM     16  C   UNL     1      16.198 -21.669   5.179  1.00  0.00    +0.008 A 
ATOM     17  C   UNL     1      15.615 -19.477   3.548  1.00  0.00    +0.022 A 
ATOM     18  C   UNL     1      15.298 -20.693   5.619  1.00  0.00    +0.022 A 
ATOM     19  C   UNL     1      15.022 -19.597   4.803  1.00  0.00    +0.082 A 
BRANCH  19  20
ATOM     20  S   UNL     1      13.901 -18.342   5.359  1.00  0.00    +0.238 S 
ATOM     21  O   UNL     1      12.573 -18.905   5.413  1.00  0.00    -0.207 OA
ATOM     22  O   UNL     1      14.499 -17.655   6.481  1.00  0.00    -0.207 OA
BRANCH  20  23
ATOM     23  N   UNL     1      13.956 -17.252   4.076  1.00  0.00    -0.225 NA
ATOM     24  H   UNL     1      14.914 -16.912   3.973  1.00  0.00    +0.137 HD
ATOM     25  H   UNL     1      13.598 -17.642   3.204  1.00  0.00    +0.137 HD
ENDBRANCH  20  23
ENDBRANCH  19  20
ENDBRANCH   5  14
TORSDOF 5
ENDMDL
MODEL 4
REMARK VINA RESULT:    -7.590      3.042      6.688
REMARK INTER + INTRA:          -9.890
REMARK INTER:                  -9.456
REMARK INTRA:                  -0.435
REMARK UNBOUND:                -0.304
REMARK SMILES CC(=O)CN1C(=O)NC(C)(c2ccc(S(N)(=O)=O)cc2)C1=O
REMARK SMILES IDX 5 1 6 2 7 3 8 4 9 5 10 6 21 7 22 8 4 10 2 11 3 12 1 13 11 14
REMARK SMILES IDX 12 15 20 16 13 17 19 18 14 19 15 20 17 21 18 22 16 23
REMARK H PARENT 8 9 16 24 16 25
ROOT
ATOM      1  N   UNL     1      16.701 -21.733  -1.047  1.00  0.00    -0.254 N 
ATOM      2  C   UNL     1      15.632 -21.132  -1.629  1.00  0.00    +0.325 C 
ATOM      3  O   UNL     1      14.840 -21.632  -2.409  1.00  0.00    -0.248 OA
ATOM      4  N   UNL     1      15.576 -19.827  -1.205  1.00  0.00    -0.319 N 
ATOM      5  C   UNL     1      16.573 -19.523  -0.198  1.00  0.00    +0.144 C 
ATOM      6  C   UNL     1      17.476 -18.397  -0.705  1.00  0.00    +0.051 C 
ATOM      7  C   UNL     1      17.341 -20.870  -0.203  1.00  0.00    +0.261 C 
ATOM      8  O   UNL     1      18.355 -21.122   0.438  1.00  0.00    -0.271 OA
ATOM      9  H   UNL     1      14.821 -19.218  -1.487  1.00  0.00    +0.166 HD
ENDROOT
BRANCH   1  10
ATOM     10  C   UNL     1      17.036 -23.126  -1.207  1.00  0.00    +0.205 C 
BRANCH  10  11
ATOM     11  C   UNL     1      16.294 -23.952  -0.160  1.00  0.00    +0.149 C 
ATOM     12  O   UNL     1      15.080 -24.158  -0.197  1.00  0.00    -0.298 OA
ATOM     13  C   UNL     1      17.137 -24.492   0.966  1.00  0.00    +0.089 C 
ENDBRANCH  10  11
ENDBRANCH   1  10
BRANCH   5  14
ATOM     14  C   UNL     1      15.972 -19.242   1.180  1.00  0.00    -0.013 A 
ATOM     15  C   UNL     1      15.071 -18.171   1.348  1.00  0.00    +0.008 A 
ATOM     16  C   UNL     1      16.310 -20.002   2.317  1.00  0.00    +0.008 A 
ATOM     17  C   UNL     1      14.525 -17.871   2.599  1.00  0.00    +0.022 A 
ATOM     18  C   UNL     1      15.767 -19.708   3.572  1.00  0.00    +0.022 A 
ATOM     19  C   UNL     1      14.886 -18.637   3.706  1.00  0.00    +0.082 A 
BRANCH  19  20
ATOM     20  S   UNL     1      14.209 -18.242   5.295  1.00  0.00    +0.238 S 
ATOM     21  O   UNL     1      13.505 -16.986   5.193  1.00  0.00    -0.207 OA
ATOM     22  O   UNL     1      13.599 -19.431   5.845  1.00  0.00    -0.207 OA
BRANCH  20  23
ATOM     23  N   UNL     1      15.607 -17.986   6.199  1.00  0.00    -0.225 NA
ATOM     24  H   UNL     1      15.891 -18.871   6.625  1.00  0.00    +0.137 HD
ATOM     25  H   UNL     1      16.363 -17.568   5.658  1.00  0.00    +0.137 HD
ENDBRANCH  20  23
ENDBRANCH  19  20
ENDBRANCH   5  14
TORSDOF 5
ENDMDL
MODEL 5
REMARK VINA RESULT:    -7.315      3.322      6.436
REMARK INTER + INTRA:          -9.543
REMARK INTER:                  -8.820
REMARK INTRA:                  -0.723
REMARK UNBOUND:                -0.304
REMARK SMILES CC(=O)CN1C(=O)NC(C)(c2ccc(S(N)(=O)=O)cc2)C1=O
REMARK SMILES IDX 5 1 6 2 7 3 8 4 9 5 10 6 21 7 22 8 4 10 2 11 3 12 1 13 11 14
REMARK SMILES IDX 12 15 20 16 13 17 19 18 14 19 15 20 17 21 18 22 16 23
REMARK H PARENT 8 9 16 24 16 25
ROOT
ATOM      1  N   UNL     1      18.458 -23.035   1.285  1.00  0.00    -0.254 N 
ATOM      2  C   UNL     1      17.299 -23.346   0.652  1.00  0.00    +0.325 C 
ATOM      3  O   UNL     1      16.899 -24.458   0.352  1.00  0.00    -0.248 OA
ATOM      4  N   UNL     1      16.621 -22.184   0.378  1.00  0.00    -0.319 N 
ATOM      5  C   UNL     1      17.268 -21.014   0.939  1.00  0.00    +0.144 C 
ATOM      6  C   UNL     1      17.617 -20.041  -0.189  1.00  0.00    +0.051 C 
ATOM      7  C   UNL     1      18.554 -21.686   1.484  1.00  0.00    +0.261 C 
ATOM      8  O   UNL     1      19.503 -21.109   2.003  1.00  0.00    -0.271 OA
ATOM      9  H   UNL     1      15.706 -22.201  -0.049  1.00  0.00    +0.166 HD
ENDROOT
BRANCH   1  10
ATOM     10  C   UNL     1      19.396 -24.008   1.787  1.00  0.00    +0.205 C 
BRANCH  10  11
ATOM     11  C   UNL     1      19.092 -24.301   3.253  1.00  0.00    +0.149 C 
ATOM     12  O   UNL     1      18.066 -24.871   3.629  1.00  0.00    -0.298 OA
ATOM     13  C   UNL     1      20.120 -23.822   4.245  1.00  0.00    +0.089 C 
ENDBRANCH  10  11
ENDBRANCH   1  10
BRANCH   5  14
ATOM     14  C   UNL     1      16.468 -20.367   2.070  1.00  0.00    -0.013 A 
ATOM     15  C   UNL     1      15.742 -19.182   1.829  1.00  0.00    +0.008 A 
ATOM     16  C   UNL     1      16.450 -20.894   3.376  1.00  0.00    +0.008 A 
ATOM     17  C   UNL     1      15.022 -18.552   2.847  1.00  0.00    +0.022 A 
ATOM     18  C   UNL     1      15.732 -20.269   4.401  1.00  0.00    +0.022 A 
ATOM     19  C   UNL     1      15.031 -19.095   4.131  1.00  0.00    +0.082 A 
BRANCH  19  20
ATOM     20  S   UNL     1      14.136 -18.282   5.426  1.00  0.00    +0.238 S 
ATOM     21  O   UNL     1      12.815 -18.858   5.500  1.00  0.00    -0.207 OA
ATOM     22  O   UNL     1      14.999 -18.166   6.580  1.00  0.00    -0.207 OA
BRANCH  20  23
ATOM     23  N   UNL     1      13.994 -16.723   4.805  1.00  0.00    -0.225 NA
ATOM     24  H   UNL     1      14.867 -16.472   4.338  1.00  0.00    +0.137 HD
ATOM     25  H   UNL     1      13.190 -16.609   4.189  1.00  0.00    +0.137 HD
ENDBRANCH  20  23
ENDBRANCH  19  20
ENDBRANCH   5  14
TORSDOF 5
ENDMDL
MODEL 6
REMARK VINA RESULT:    -7.048      2.821      6.659
REMARK INTER + INTRA:          -9.205
REMARK INTER:                  -8.542
REMARK INTRA:                  -0.663
REMARK UNBOUND:                -0.304
REMARK SMILES CC(=O)CN1C(=O)NC(C)(c2ccc(S(N)(=O)=O)cc2)C1=O
REMARK SMILES IDX 5 1 6 2 7 3 8 4 9 5 10 6 21 7 22 8 4 10 2 11 3 12 1 13 11 14
REMARK SMILES IDX 12 15 20 16 13 17 19 18 14 19 15 20 17 21 18 22 16 23
REMARK H PARENT 8 9 16 24 16 25
ROOT
ATOM      1  N   UNL     1      17.885 -22.740  -0.714  1.00  0.00    -0.254 N 
ATOM      2  C   UNL     1      19.058 -22.473  -0.087  1.00  0.00    +0.325 C 
ATOM      3  O   UNL     1      20.098 -22.096  -0.600  1.00  0.00    -0.248 OA
ATOM      4  N   UNL     1      18.903 -22.708   1.256  1.00  0.00    -0.319 N 
ATOM      5  C   UNL     1      17.539 -23.044   1.611  1.00  0.00    +0.144 C 
ATOM      6  C   UNL     1      17.512 -24.430   2.261  1.00  0.00    +0.051 C 
ATOM      7  C   UNL     1      16.927 -23.109   0.189  1.00  0.00    +0.261 C 
ATOM      8  O   UNL     1      15.778 -23.438  -0.087  1.00  0.00    -0.271 OA
ATOM      9  H   UNL     1      19.651 -22.522   1.909  1.00  0.00    +0.166 HD
ENDROOT
BRANCH   1  10
ATOM     10  C   UNL     1      17.652 -22.541  -2.123  1.00  0.00    +0.205 C 
BRANCH  10  11
ATOM     11  C   UNL     1      17.542 -21.048  -2.416  1.00  0.00    +0.149 C 
ATOM     12  O   UNL     1      18.263 -20.463  -3.226  1.00  0.00    -0.298 OA
ATOM     13  C   UNL     1      16.503 -20.299  -1.623  1.00  0.00    +0.089 C 
ENDBRANCH  10  11
ENDBRANCH   1  10
BRANCH   5  14
ATOM     14  C   UNL     1      16.852 -21.968   2.454  1.00  0.00    -0.013 A 
ATOM     15  C   UNL     1      16.176 -22.327   3.638  1.00  0.00    +0.008 A 
ATOM     16  C   UNL     1      16.839 -20.611   2.075  1.00  0.00    +0.008 A 
ATOM     17  C   UNL     1      15.517 -21.372   4.416  1.00  0.00    +0.022 A 
ATOM     18  C   UNL     1      16.181 -19.649   2.848  1.00  0.00    +0.022 A 
ATOM     19  C   UNL     1      15.515 -20.039   4.009  1.00  0.00    +0.082 A 
BRANCH  19  20
ATOM     20  S   UNL     1      14.661 -18.833   4.985  1.00  0.00    +0.238 S 
ATOM     21  O   UNL     1      15.507 -18.457   6.092  1.00  0.00    -0.207 OA
ATOM     22  O   UNL     1      14.066 -17.859   4.097  1.00  0.00    -0.207 OA
BRANCH  20  23
ATOM     23  N   UNL     1      13.378 -19.741   5.590  1.00  0.00    -0.225 NA
ATOM     24  H   UNL     1      13.398 -19.702   6.611  1.00  0.00    +0.137 HD
ATOM     25  H   UNL     1      12.472 -19.452   5.220  1.00  0.00    +0.137 HD
ENDBRANCH  20  23
ENDBRANCH  19  20
ENDBRANCH   5  14
TORSDOF 5
ENDMDL
MODEL 7
REMARK VINA RESULT:    -6.972      3.650      6.745
REMARK INTER + INTRA:          -9.110
REMARK INTER:                  -8.591
REMARK INTRA:                  -0.519
REMARK UNBOUND:                -0.304
REMARK SMILES CC(=O)CN1C(=O)NC(C)(c2ccc(S(N)(=O)=O)cc2)C1=O
REMARK SMILES IDX 5 1 6 2 7 3 8 4 9 5 10 6 21 7 22 8 4 10 2 11 3 12 1 13 11 14
REMARK SMILES IDX 12 15 20 16 13 17 19 18 14 19 15 20 17 21 18 22 16 23
REMARK H PARENT 8 9 16 24 16 25
ROOT
ATOM      1  N   UNL     1      17.552 -24.028   1.819  1.00  0.00    -0.254 N 
ATOM      2  C   UNL     1      16.771 -23.758   0.743  1.00  0.00    +0.325 C 
ATOM      3  O   UNL     1      16.168 -24.560   0.050  1.00  0.00    -0.248 OA
ATOM      4  N   UNL     1      16.765 -22.401   0.532  1.00  0.00    -0.319 N 
ATOM      5  C   UNL     1      17.475 -21.672   1.565  1.00  0.00    +0.144 C 
ATOM      6  C   UNL     1      18.618 -20.880   0.927  1.00  0.00    +0.051 C 
ATOM      7  C   UNL     1      18.038 -22.874   2.365  1.00  0.00    +0.261 C 
ATOM      8  O   UNL     1      18.796 -22.806   3.327  1.00  0.00    -0.271 OA
ATOM      9  H   UNL     1      16.200 -21.988  -0.196  1.00  0.00    +0.166 HD
ENDROOT
BRANCH   1  10
ATOM     10  C   UNL     1      17.739 -25.344   2.377  1.00  0.00    +0.205 C 
BRANCH  10  11
ATOM     11  C   UNL     1      18.862 -26.060   1.632  1.00  0.00    +0.149 C 
ATOM     12  O   UNL     1      20.041 -25.710   1.690  1.00  0.00    -0.298 OA
ATOM     13  C   UNL     1      18.441 -27.226   0.776  1.00  0.00    +0.089 C 
ENDBRANCH  10  11
ENDBRANCH   1  10
BRANCH   5  14
ATOM     14  C   UNL     1      16.558 -20.815   2.437  1.00  0.00    -0.013 A 
ATOM     15  C   UNL     1      16.150 -19.542   1.990  1.00  0.00    +0.008 A 
ATOM     16  C   UNL     1      16.119 -21.236   3.708  1.00  0.00    +0.008 A 
ATOM     17  C   UNL     1      15.333 -18.723   2.774  1.00  0.00    +0.022 A 
ATOM     18  C   UNL     1      15.302 -20.423   4.500  1.00  0.00    +0.022 A 
ATOM     19  C   UNL     1      14.923 -19.166   4.030  1.00  0.00    +0.082 A 
BRANCH  19  20
ATOM     20  S   UNL     1      13.906 -18.118   5.033  1.00  0.00    +0.238 S 
ATOM     21  O   UNL     1      13.471 -17.000   4.231  1.00  0.00    -0.207 OA
ATOM     22  O   UNL     1      12.984 -18.946   5.777  1.00  0.00    -0.207 OA
BRANCH  20  23
ATOM     23  N   UNL     1      15.021 -17.551   6.161  1.00  0.00    -0.225 NA
ATOM     24  H   UNL     1      15.785 -18.224   6.237  1.00  0.00    +0.137 HD
ATOM     25  H   UNL     1      15.363 -16.613   5.950  1.00  0.00    +0.137 HD
ENDBRANCH  20  23
ENDBRANCH  19  20
ENDBRANCH   5  14
TORSDOF 5
ENDMDL
MODEL 8
REMARK VINA RESULT:    -6.948      3.874      6.377
REMARK INTER + INTRA:          -9.079
REMARK INTER:                  -8.538
REMARK INTRA:                  -0.541
REMARK UNBOUND:                -0.304
REMARK SMILES CC(=O)CN1C(=O)NC(C)(c2ccc(S(N)(=O)=O)cc2)C1=O
REMARK SMILES IDX 5 1 6 2 7 3 8 4 9 5 10 6 21 7 22 8 4 10 2 11 3 12 1 13 11 14
REMARK SMILES IDX 12 15 20 16 13 17 19 18 14 19 15 20 17 21 18 22 16 23
REMARK H PARENT 8 9 16 24 16 25
ROOT
ATOM      1  N   UNL     1      16.811 -19.922  -0.735  1.00  0.00    -0.254 N 
ATOM      2  C   UNL     1      17.853 -19.271  -1.311  1.00  0.00    +0.325 C 
ATOM      3  O   UNL     1      17.966 -18.070  -1.484  1.00  0.00    -0.248 OA
ATOM      4  N   UNL     1      18.793 -20.196  -1.693  1.00  0.00    -0.319 N 
ATOM      5  C   UNL     1      18.457 -21.541  -1.271  1.00  0.00    +0.144 C 
ATOM      6  C   UNL     1      18.348 -22.444  -2.502  1.00  0.00    +0.051 C 
ATOM      7  C   UNL     1      17.050 -21.266  -0.682  1.00  0.00    +0.261 C 
ATOM      8  O   UNL     1      16.276 -22.110  -0.244  1.00  0.00    -0.271 OA
ATOM      9  H   UNL     1      19.672 -19.910  -2.101  1.00  0.00    +0.166 HD
ENDROOT
BRANCH   1  10
ATOM     10  C   UNL     1      15.667 -19.267  -0.150  1.00  0.00    +0.205 C 
BRANCH  10  11
ATOM     11  C   UNL     1      15.960 -18.937   1.310  1.00  0.00    +0.149 C 
ATOM     12  O   UNL     1      17.006 -19.253   1.878  1.00  0.00    -0.298 OA
ATOM     13  C   UNL     1      14.866 -18.211   2.050  1.00  0.00    +0.089 C 
ENDBRANCH  10  11
ENDBRANCH   1  10
BRANCH   5  14
ATOM     14  C   UNL     1      19.401 -22.091  -0.201  1.00  0.00    -0.013 A 
ATOM     15  C   UNL     1      19.422 -21.509   1.084  1.00  0.00    +0.008 A 
ATOM     16  C   UNL     1      20.290 -23.153  -0.456  1.00  0.00    +0.008 A 
ATOM     17  C   UNL     1      20.290 -21.971   2.076  1.00  0.00    +0.022 A 
ATOM     18  C   UNL     1      21.163 -23.621   0.532  1.00  0.00    +0.022 A 
ATOM     19  C   UNL     1      21.164 -23.018   1.789  1.00  0.00    +0.082 A 
BRANCH  19  20
ATOM     20  S   UNL     1      22.280 -23.587   3.041  1.00  0.00    +0.238 S 
ATOM     21  O   UNL     1      22.466 -25.009   2.876  1.00  0.00    -0.207 OA
ATOM     22  O   UNL     1      23.389 -22.664   3.124  1.00  0.00    -0.207 OA
BRANCH  20  23
ATOM     23  N   UNL     1      21.373 -23.336   4.437  1.00  0.00    -0.225 NA
ATOM     24  H   UNL     1      21.228 -22.332   4.561  1.00  0.00    +0.137 HD
ATOM     25  H   UNL     1      20.490 -23.848   4.439  1.00  0.00    +0.137 HD
ENDBRANCH  20  23
ENDBRANCH  19  20
ENDBRANCH   5  14
TORSDOF 5
ENDMDL
MODEL 9
REMARK VINA RESULT:    -6.939      3.585      6.848
REMARK INTER + INTRA:          -9.068
REMARK INTER:                  -8.372
REMARK INTRA:                  -0.696
REMARK UNBOUND:                -0.304
REMARK SMILES CC(=O)CN1C(=O)NC(C)(c2ccc(S(N)(=O)=O)cc2)C1=O
REMARK SMILES IDX 5 1 6 2 7 3 8 4 9 5 10 6 21 7 22 8 4 10 2 11 3 12 1 13 11 14
REMARK SMILES IDX 12 15 20 16 13 17 19 18 14 19 15 20 17 21 18 22 16 23
REMARK H PARENT 8 9 16 24 16 25
ROOT
ATOM      1  N   UNL     1      19.062 -23.367   2.619  1.00  0.00    -0.254 N 
ATOM      2  C   UNL     1      17.973 -24.177   2.630  1.00  0.00    +0.325 C 
ATOM      3  O   UNL     1      17.917 -25.330   3.024  1.00  0.00    -0.248 OA
ATOM      4  N   UNL     1      16.907 -23.489   2.106  1.00  0.00    -0.319 N 
ATOM      5  C   UNL     1      17.223 -22.104   1.818  1.00  0.00    +0.144 C 
ATOM      6  C   UNL     1      17.001 -21.835   0.328  1.00  0.00    +0.051 C 
ATOM      7  C   UNL     1      18.739 -22.130   2.137  1.00  0.00    +0.261 C 
ATOM      8  O   UNL     1      19.524 -21.200   1.982  1.00  0.00    -0.271 OA
ATOM      9  H   UNL     1      15.986 -23.902   2.070  1.00  0.00    +0.166 HD
ENDROOT
BRANCH   1  10
ATOM     10  C   UNL     1      20.350 -23.729   3.158  1.00  0.00    +0.205 C 
BRANCH  10  11
ATOM     11  C   UNL     1      21.215 -24.328   2.053  1.00  0.00    +0.149 C 
ATOM     12  O   UNL     1      21.798 -23.647   1.208  1.00  0.00    -0.298 OA
ATOM     13  C   UNL     1      21.299 -25.832   2.028  1.00  0.00    +0.089 C 
ENDBRANCH  10  11
ENDBRANCH   1  10
BRANCH   5  14
ATOM     14  C   UNL     1      16.490 -21.117   2.726  1.00  0.00    -0.013 A 
ATOM     15  C   UNL     1      16.044 -21.529   3.998  1.00  0.00    +0.008 A 
ATOM     16  C   UNL     1      16.206 -19.796   2.327  1.00  0.00    +0.008 A 
ATOM     17  C   UNL     1      15.348 -20.660   4.841  1.00  0.00    +0.022 A 
ATOM     18  C   UNL     1      15.510 -18.919   3.165  1.00  0.00    +0.022 A 
ATOM     19  C   UNL     1      15.076 -19.361   4.413  1.00  0.00    +0.082 A 
BRANCH  19  20
ATOM     20  S   UNL     1      14.174 -18.266   5.475  1.00  0.00    +0.238 S 
ATOM     21  O   UNL     1      12.839 -18.788   5.643  1.00  0.00    -0.207 OA
ATOM     22  O   UNL     1      15.016 -17.914   6.595  1.00  0.00    -0.207 OA
BRANCH  20  23
ATOM     23  N   UNL     1      14.079 -16.881   4.522  1.00  0.00    -0.225 NA
ATOM     24  H   UNL     1      14.143 -16.059   5.127  1.00  0.00    +0.137 HD
ATOM     25  H   UNL     1      14.776 -16.857   3.778  1.00  0.00    +0.137 HD
ENDBRANCH  20  23
ENDBRANCH  19  20
ENDBRANCH   5  14
TORSDOF 5
ENDMDL
