MODEL 1
REMARK VINA RESULT:    -8.401      0.000      0.000
REMARK INTER + INTRA:         -11.832
REMARK INTER:                 -10.365
REMARK INTRA:                  -1.466
REMARK UNBOUND:                -1.466
REMARK SMILES CC1(c2ccc(C#N)cc2)NC(=O)N(CC(=O)c2ccccc2F)C1=O
REMARK SMILES IDX 16 1 17 2 15 3 14 4 2 5 11 6 25 7 12 8 26 9 13 10 1 11 3 13
REMARK SMILES IDX 4 14 10 15 5 16 9 17 6 18 7 19 8 20 18 21 19 22 23 23 20 24
REMARK SMILES IDX 22 25 21 26 24 27
REMARK H PARENT 11 12
ROOT
ATOM      1  C   UNL     1      18.255 -22.554  -1.478  1.00  0.00    +0.185 C 
ATOM      2  O   UNL     1      18.179 -23.047  -2.606  1.00  0.00    -0.292 OA
ENDROOT
BRANCH   1   3
ATOM      3  C   UNL     1      19.080 -23.186  -0.360  1.00  0.00    +0.211 C 
BRANCH   3   4
ATOM      4  N   UNL     1      18.265 -23.305   0.829  1.00  0.00    -0.254 N 
ATOM      5  C   UNL     1      17.306 -22.920   2.959  1.00  0.00    +0.144 C 
ATOM      6  N   UNL     1      16.550 -23.841   2.135  1.00  0.00    -0.319 N 
ATOM      7  C   UNL     1      18.457 -22.586   1.977  1.00  0.00    +0.261 C 
ATOM      8  C   UNL     1      17.110 -24.019   0.893  1.00  0.00    +0.325 C 
ATOM      9  O   UNL     1      19.391 -21.826   2.198  1.00  0.00    -0.271 OA
ATOM     10  O   UNL     1      16.615 -24.701   0.012  1.00  0.00    -0.248 OA
ATOM     11  C   UNL     1      17.916 -23.687   4.138  1.00  0.00    +0.051 C 
ATOM     12  H   UNL     1      15.627 -24.195   2.347  1.00  0.00    +0.166 HD
BRANCH   5  13
ATOM     13  C   UNL     1      16.460 -21.698   3.310  1.00  0.00    -0.013 A 
ATOM     14  C   UNL     1      15.583 -21.739   4.413  1.00  0.00    +0.008 A 
ATOM     15  C   UNL     1      16.525 -20.499   2.578  1.00  0.00    +0.008 A 
ATOM     16  C   UNL     1      14.797 -20.635   4.763  1.00  0.00    +0.020 A 
ATOM     17  C   UNL     1      15.740 -19.393   2.927  1.00  0.00    +0.020 A 
ATOM     18  C   UNL     1      14.874 -19.458   4.020  1.00  0.00    +0.052 A 
ATOM     19  C   UNL     1      14.071 -18.325   4.375  1.00  0.00    +0.099 C 
ATOM     20  N   UNL     1      13.428 -17.402   4.660  1.00  0.00    -0.192 NA
ENDBRANCH   5  13
ENDBRANCH   3   4
ENDBRANCH   1   3
BRANCH   1  21
ATOM     21  C   UNL     1      17.508 -21.294  -1.202  1.00  0.00    +0.055 A 
ATOM     22  C   UNL     1      18.241 -20.126  -0.937  1.00  0.00    +0.015 A 
ATOM     23  C   UNL     1      16.114 -21.224  -1.199  1.00  0.00    +0.134 A 
ATOM     24  C   UNL     1      17.584 -18.920  -0.671  1.00  0.00    +0.001 A 
ATOM     25  C   UNL     1      15.457 -20.023  -0.935  1.00  0.00    +0.040 A 
ATOM     26  C   UNL     1      16.192 -18.869  -0.669  1.00  0.00    +0.003 A 
ATOM     27  F   UNL     1      15.361 -22.301  -1.457  1.00  0.00    -0.206 F 
ENDBRANCH   1  21
TORSDOF 4
ENDMDL
MODEL 2
REMARK VINA RESULT:    -7.779      2.940      6.190
REMARK INTER + INTRA:         -11.065
REMARK INTER:                 -10.477
REMARK INTRA:                  -0.587
REMARK UNBOUND:                -1.466
REMARK SMILES CC1(c2ccc(C#N)cc2)NC(=O)N(CC(=O)c2ccccc2F)C1=O
REMARK SMILES IDX 16 1 17 2 15 3 14 4 2 5 11 6 25 7 12 8 26 9 13 10 1 11 3 13
REMARK SMILES IDX 4 14 10 15 5 16 9 17 6 18 7 19 8 20 18 21 19 22 23 23 20 24
REMARK SMILES IDX 22 25 21 26 24 27
REMARK H PARENT 11 12
ROOT
ATOM      1  C   UNL     1      15.973 -19.726   2.998  1.00  0.00    +0.185 C 
ATOM      2  O   UNL     1      16.050 -20.909   3.341  1.00  0.00    -0.292 OA
ENDROOT
BRANCH   1   3
ATOM      3  C   UNL     1      16.946 -19.095   2.006  1.00  0.00    +0.211 C 
BRANCH   3   4
ATOM      4  N   UNL     1      17.240 -20.043   0.954  1.00  0.00    -0.254 N 
ATOM      5  C   UNL     1      18.164 -21.847  -0.268  1.00  0.00    +0.144 C 
ATOM      6  N   UNL     1      16.966 -21.291  -0.863  1.00  0.00    -0.319 N 
ATOM      7  C   UNL     1      18.270 -20.944   0.985  1.00  0.00    +0.261 C 
ATOM      8  C   UNL     1      16.431 -20.270  -0.115  1.00  0.00    +0.325 C 
ATOM      9  O   UNL     1      19.138 -21.009   1.846  1.00  0.00    -0.271 OA
ATOM     10  O   UNL     1      15.391 -19.695  -0.388  1.00  0.00    -0.248 OA
ATOM     11  C   UNL     1      19.364 -21.528  -1.168  1.00  0.00    +0.051 C 
ATOM     12  H   UNL     1      16.456 -21.693  -1.638  1.00  0.00    +0.166 HD
BRANCH   5  13
ATOM     13  C   UNL     1      17.954 -23.319   0.083  1.00  0.00    -0.013 A 
ATOM     14  C   UNL     1      16.677 -23.902  -0.047  1.00  0.00    +0.008 A 
ATOM     15  C   UNL     1      19.002 -24.145   0.527  1.00  0.00    +0.008 A 
ATOM     16  C   UNL     1      16.454 -25.248   0.263  1.00  0.00    +0.020 A 
ATOM     17  C   UNL     1      18.781 -25.493   0.836  1.00  0.00    +0.020 A 
ATOM     18  C   UNL     1      17.506 -26.048   0.707  1.00  0.00    +0.052 A 
ATOM     19  C   UNL     1      17.282 -27.427   1.025  1.00  0.00    +0.099 C 
ATOM     20  N   UNL     1      17.108 -28.546   1.279  1.00  0.00    -0.192 NA
ENDBRANCH   5  13
ENDBRANCH   3   4
ENDBRANCH   1   3
BRANCH   1  21
ATOM     21  C   UNL     1      14.889 -18.886   3.583  1.00  0.00    +0.055 A 
ATOM     22  C   UNL     1      14.372 -17.831   2.815  1.00  0.00    +0.015 A 
ATOM     23  C   UNL     1      14.364 -19.105   4.858  1.00  0.00    +0.134 A 
ATOM     24  C   UNL     1      13.356 -17.015   3.321  1.00  0.00    +0.001 A 
ATOM     25  C   UNL     1      13.350 -18.293   5.365  1.00  0.00    +0.040 A 
ATOM     26  C   UNL     1      12.846 -17.246   4.597  1.00  0.00    +0.003 A 
ATOM     27  F   UNL     1      14.808 -20.103   5.633  1.00  0.00    -0.206 F 
ENDBRANCH   1  21
TORSDOF 4
ENDMDL
MODEL 3
REMARK VINA RESULT:    -7.598      2.923      6.441
REMARK INTER + INTRA:         -10.841
REMARK INTER:                  -9.930
REMARK INTRA:                  -0.911
REMARK UNBOUND:                -1.466
REMARK SMILES CC1(c2ccc(C#N)cc2)NC(=O)N(CC(=O)c2ccccc2F)C1=O
REMARK SMILES IDX 16 1 17 2 15 3 14 4 2 5 11 6 25 7 12 8 26 9 13 10 1 11 3 13
REMARK SMILES IDX 4 14 10 15 5 16 9 17 6 18 7 19 8 20 18 21 19 22 23 23 20 24
REMARK SMILES IDX 22 25 21 26 24 27
REMARK H PARENT 11 12
ROOT
ATOM      1  C   UNL     1      16.485 -21.670   5.574  1.00  0.00    +0.185 C 
ATOM      2  O   UNL     1      16.149 -22.705   6.156  1.00  0.00    -0.292 OA
ENDROOT
BRANCH   1   3
ATOM      3  C   UNL     1      17.769 -21.571   4.755  1.00  0.00    +0.211 C 
BRANCH   3   4
ATOM      4  N   UNL     1      17.661 -22.422   3.590  1.00  0.00    -0.254 N 
ATOM      5  C   UNL     1      17.288 -23.194   1.383  1.00  0.00    +0.144 C 
ATOM      6  N   UNL     1      18.021 -24.128   2.214  1.00  0.00    -0.319 N 
ATOM      7  C   UNL     1      17.098 -22.043   2.401  1.00  0.00    +0.261 C 
ATOM      8  C   UNL     1      18.254 -23.640   3.477  1.00  0.00    +0.325 C 
ATOM      9  O   UNL     1      16.523 -20.983   2.187  1.00  0.00    -0.271 OA
ATOM     10  O   UNL     1      18.903 -24.225   4.328  1.00  0.00    -0.248 OA
ATOM     11  C   UNL     1      15.901 -23.775   1.081  1.00  0.00    +0.051 C 
ATOM     12  H   UNL     1      18.474 -24.971   1.889  1.00  0.00    +0.166 HD
BRANCH   5  13
ATOM     13  C   UNL     1      18.127 -22.780   0.176  1.00  0.00    -0.013 A 
ATOM     14  C   UNL     1      19.534 -22.808   0.249  1.00  0.00    +0.008 A 
ATOM     15  C   UNL     1      17.549 -22.378  -1.041  1.00  0.00    +0.008 A 
ATOM     16  C   UNL     1      20.329 -22.439  -0.841  1.00  0.00    +0.020 A 
ATOM     17  C   UNL     1      18.344 -22.009  -2.134  1.00  0.00    +0.020 A 
ATOM     18  C   UNL     1      19.736 -22.037  -2.036  1.00  0.00    +0.052 A 
ATOM     19  C   UNL     1      20.547 -21.659  -3.156  1.00  0.00    +0.099 C 
ATOM     20  N   UNL     1      21.198 -21.356  -4.067  1.00  0.00    -0.192 NA
ENDBRANCH   5  13
ENDBRANCH   3   4
ENDBRANCH   1   3
BRANCH   1  21
ATOM     21  C   UNL     1      15.602 -20.474   5.684  1.00  0.00    +0.055 A 
ATOM     22  C   UNL     1      16.146 -19.286   6.198  1.00  0.00    +0.015 A 
ATOM     23  C   UNL     1      14.263 -20.483   5.294  1.00  0.00    +0.134 A 
ATOM     24  C   UNL     1      15.357 -18.139   6.322  1.00  0.00    +0.001 A 
ATOM     25  C   UNL     1      13.473 -19.339   5.415  1.00  0.00    +0.040 A 
ATOM     26  C   UNL     1      14.020 -18.166   5.930  1.00  0.00    +0.003 A 
ATOM     27  F   UNL     1      13.691 -21.582   4.784  1.00  0.00    -0.206 F 
ENDBRANCH   1  21
TORSDOF 4
ENDMDL
MODEL 4
REMARK VINA RESULT:    -7.594      2.962      6.878
REMARK INTER + INTRA:         -10.837
REMARK INTER:                 -10.098
REMARK INTRA:                  -0.738
REMARK UNBOUND:                -1.466
REMARK SMILES CC1(c2ccc(C#N)cc2)NC(=O)N(CC(=O)c2ccccc2F)C1=O
REMARK SMILES IDX 16 1 17 2 15 3 14 4 2 5 11 6 25 7 12 8 26 9 13 10 1 11 3 13
REMARK SMILES IDX 4 14 10 15 5 16 9 17 6 18 7 19 8 20 18 21 19 22 23 23 20 24
REMARK SMILES IDX 22 25 21 26 24 27
REMARK H PARENT 11 12
ROOT
ATOM      1  C   UNL     1      15.388 -18.817   2.362  1.00  0.00    +0.185 C 
ATOM      2  O   UNL     1      14.866 -18.486   1.295  1.00  0.00    -0.292 OA
ENDROOT
BRANCH   1   3
ATOM      3  C   UNL     1      16.808 -19.371   2.442  1.00  0.00    +0.211 C 
BRANCH   3   4
ATOM      4  N   UNL     1      16.937 -20.492   1.538  1.00  0.00    -0.254 N 
ATOM      5  C   UNL     1      17.461 -21.828  -0.345  1.00  0.00    +0.144 C 
ATOM      6  N   UNL     1      17.099 -22.592   0.832  1.00  0.00    -0.319 N 
ATOM      7  C   UNL     1      17.342 -20.397   0.235  1.00  0.00    +0.261 C 
ATOM      8  C   UNL     1      16.834 -21.793   1.919  1.00  0.00    +0.325 C 
ATOM      9  O   UNL     1      17.553 -19.356  -0.375  1.00  0.00    -0.271 OA
ATOM     10  O   UNL     1      16.568 -22.218   3.030  1.00  0.00    -0.248 OA
ATOM     11  C   UNL     1      16.364 -21.988  -1.403  1.00  0.00    +0.051 C 
ATOM     12  H   UNL     1      17.188 -23.594   0.930  1.00  0.00    +0.166 HD
BRANCH   5  13
ATOM     13  C   UNL     1      18.883 -22.168  -0.786  1.00  0.00    -0.013 A 
ATOM     14  C   UNL     1      19.329 -21.809  -2.074  1.00  0.00    +0.008 A 
ATOM     15  C   UNL     1      19.798 -22.824   0.057  1.00  0.00    +0.008 A 
ATOM     16  C   UNL     1      20.627 -22.103  -2.506  1.00  0.00    +0.020 A 
ATOM     17  C   UNL     1      21.098 -23.118  -0.373  1.00  0.00    +0.020 A 
ATOM     18  C   UNL     1      21.515 -22.759  -1.656  1.00  0.00    +0.052 A 
ATOM     19  C   UNL     1      22.846 -23.062  -2.094  1.00  0.00    +0.099 C 
ATOM     20  N   UNL     1      23.926 -23.305  -2.440  1.00  0.00    -0.192 NA
ENDBRANCH   5  13
ENDBRANCH   3   4
ENDBRANCH   1   3
BRANCH   1  21
ATOM     21  C   UNL     1      14.595 -18.672   3.616  1.00  0.00    +0.055 A 
ATOM     22  C   UNL     1      14.582 -19.742   4.526  1.00  0.00    +0.015 A 
ATOM     23  C   UNL     1      13.870 -17.521   3.927  1.00  0.00    +0.134 A 
ATOM     24  C   UNL     1      13.851 -19.654   5.715  1.00  0.00    +0.001 A 
ATOM     25  C   UNL     1      13.142 -17.430   5.113  1.00  0.00    +0.040 A 
ATOM     26  C   UNL     1      13.131 -18.498   6.008  1.00  0.00    +0.003 A 
ATOM     27  F   UNL     1      13.855 -16.463   3.105  1.00  0.00    -0.206 F 
ENDBRANCH   1  21
TORSDOF 4
ENDMDL
MODEL 5
REMARK VINA RESULT:    -7.563      2.626      6.577
REMARK INTER + INTRA:         -10.798
REMARK INTER:                 -10.223
REMARK INTRA:                  -0.575
REMARK UNBOUND:                -1.466
REMARK SMILES CC1(c2ccc(C#N)cc2)NC(=O)N(CC(=O)c2ccccc2F)C1=O
REMARK SMILES IDX 16 1 17 2 15 3 14 4 2 5 11 6 25 7 12 8 26 9 13 10 1 11 3 13
REMARK SMILES IDX 4 14 10 15 5 16 9 17 6 18 7 19 8 20 18 21 19 22 23 23 20 24
REMARK SMILES IDX 22 25 21 26 24 27
REMARK H PARENT 11 12
ROOT
ATOM      1  C   UNL     1      15.514 -20.254   3.955  1.00  0.00    +0.185 C 
ATOM      2  O   UNL     1      15.153 -21.382   4.303  1.00  0.00    -0.292 OA
ENDROOT
BRANCH   1   3
ATOM      3  C   UNL     1      16.832 -20.004   3.228  1.00  0.00    +0.211 C 
BRANCH   3   4
ATOM      4  N   UNL     1      17.161 -21.158   2.421  1.00  0.00    -0.254 N 
ATOM      5  C   UNL     1      17.486 -22.608   0.578  1.00  0.00    +0.144 C 
ATOM      6  N   UNL     1      18.131 -23.056   1.795  1.00  0.00    -0.319 N 
ATOM      7  C   UNL     1      16.859 -21.289   1.092  1.00  0.00    +0.261 C 
ATOM      8  C   UNL     1      17.957 -22.178   2.838  1.00  0.00    +0.325 C 
ATOM      9  O   UNL     1      16.189 -20.507   0.430  1.00  0.00    -0.271 OA
ATOM     10  O   UNL     1      18.460 -22.317   3.940  1.00  0.00    -0.248 OA
ATOM     11  C   UNL     1      16.335 -23.564   0.241  1.00  0.00    +0.051 C 
ATOM     12  H   UNL     1      18.785 -23.824   1.863  1.00  0.00    +0.166 HD
BRANCH   5  13
ATOM     13  C   UNL     1      18.519 -22.379  -0.523  1.00  0.00    -0.013 A 
ATOM     14  C   UNL     1      19.866 -22.741  -0.315  1.00  0.00    +0.008 A 
ATOM     15  C   UNL     1      18.182 -21.824  -1.770  1.00  0.00    +0.008 A 
ATOM     16  C   UNL     1      20.835 -22.548  -1.305  1.00  0.00    +0.020 A 
ATOM     17  C   UNL     1      19.151 -21.631  -2.763  1.00  0.00    +0.020 A 
ATOM     18  C   UNL     1      20.480 -21.991  -2.533  1.00  0.00    +0.052 A 
ATOM     19  C   UNL     1      21.469 -21.791  -3.550  1.00  0.00    +0.099 C 
ATOM     20  N   UNL     1      22.265 -21.632  -4.380  1.00  0.00    -0.192 NA
ENDBRANCH   5  13
ENDBRANCH   3   4
ENDBRANCH   1   3
BRANCH   1  21
ATOM     21  C   UNL     1      14.626 -19.097   4.263  1.00  0.00    +0.055 A 
ATOM     22  C   UNL     1      14.129 -18.965   5.570  1.00  0.00    +0.015 A 
ATOM     23  C   UNL     1      14.271 -18.139   3.313  1.00  0.00    +0.134 A 
ATOM     24  C   UNL     1      13.292 -17.898   5.907  1.00  0.00    +0.001 A 
ATOM     25  C   UNL     1      13.437 -17.072   3.647  1.00  0.00    +0.040 A 
ATOM     26  C   UNL     1      12.945 -16.952   4.945  1.00  0.00    +0.003 A 
ATOM     27  F   UNL     1      14.723 -18.204   2.054  1.00  0.00    -0.206 F 
ENDBRANCH   1  21
TORSDOF 4
ENDMDL
MODEL 6
REMARK VINA RESULT:    -7.501      2.734      6.205
REMARK INTER + INTRA:         -10.722
REMARK INTER:                 -10.257
REMARK INTRA:                  -0.464
REMARK UNBOUND:                -1.466
REMARK SMILES CC1(c2ccc(C#N)cc2)NC(=O)N(CC(=O)c2ccccc2F)C1=O
REMARK SMILES IDX 16 1 17 2 15 3 14 4 2 5 11 6 25 7 12 8 26 9 13 10 1 11 3 13
REMARK SMILES IDX 4 14 10 15 5 16 9 17 6 18 7 19 8 20 18 21 19 22 23 23 20 24
REMARK SMILES IDX 22 25 21 26 24 27
REMARK H PARENT 11 12
ROOT
ATOM      1  C   UNL     1      15.590 -20.054   3.876  1.00  0.00    +0.185 C 
ATOM      2  O   UNL     1      16.465 -19.694   3.084  1.00  0.00    -0.292 OA
ENDROOT
BRANCH   1   3
ATOM      3  C   UNL     1      15.486 -21.489   4.384  1.00  0.00    +0.211 C 
BRANCH   3   4
ATOM      4  N   UNL     1      16.596 -22.261   3.871  1.00  0.00    -0.254 N 
ATOM      5  C   UNL     1      17.977 -23.575   2.468  1.00  0.00    +0.144 C 
ATOM      6  N   UNL     1      18.676 -22.992   3.596  1.00  0.00    -0.319 N 
ATOM      7  C   UNL     1      16.560 -23.007   2.724  1.00  0.00    +0.261 C 
ATOM      8  C   UNL     1      17.859 -22.206   4.373  1.00  0.00    +0.325 C 
ATOM      9  O   UNL     1      15.570 -23.208   2.032  1.00  0.00    -0.271 OA
ATOM     10  O   UNL     1      18.241 -21.567   5.338  1.00  0.00    -0.248 OA
ATOM     11  C   UNL     1      17.905 -25.096   2.657  1.00  0.00    +0.051 C 
ATOM     12  H   UNL     1      19.677 -22.996   3.730  1.00  0.00    +0.166 HD
BRANCH   5  13
ATOM     13  C   UNL     1      18.580 -23.084   1.154  1.00  0.00    -0.013 A 
ATOM     14  C   UNL     1      18.318 -21.775   0.701  1.00  0.00    +0.008 A 
ATOM     15  C   UNL     1      19.417 -23.889   0.360  1.00  0.00    +0.008 A 
ATOM     16  C   UNL     1      18.859 -21.294  -0.496  1.00  0.00    +0.020 A 
ATOM     17  C   UNL     1      19.960 -23.409  -0.838  1.00  0.00    +0.020 A 
ATOM     18  C   UNL     1      19.682 -22.111  -1.270  1.00  0.00    +0.052 A 
ATOM     19  C   UNL     1      20.238 -21.623  -2.498  1.00  0.00    +0.099 C 
ATOM     20  N   UNL     1      20.696 -21.232  -3.490  1.00  0.00    -0.192 NA
ENDBRANCH   5  13
ENDBRANCH   3   4
ENDBRANCH   1   3
BRANCH   1  21
ATOM     21  C   UNL     1      14.598 -19.045   4.346  1.00  0.00    +0.055 A 
ATOM     22  C   UNL     1      14.104 -19.154   5.656  1.00  0.00    +0.015 A 
ATOM     23  C   UNL     1      14.144 -17.997   3.544  1.00  0.00    +0.134 A 
ATOM     24  C   UNL     1      13.171 -18.232   6.141  1.00  0.00    +0.001 A 
ATOM     25  C   UNL     1      13.214 -17.076   4.027  1.00  0.00    +0.040 A 
ATOM     26  C   UNL     1      12.726 -17.194   5.326  1.00  0.00    +0.003 A 
ATOM     27  F   UNL     1      14.588 -17.834   2.291  1.00  0.00    -0.206 F 
ENDBRANCH   1  21
TORSDOF 4
ENDMDL
MODEL 7
REMARK VINA RESULT:    -7.475      2.921      6.647
REMARK INTER + INTRA:         -10.689
REMARK INTER:                 -10.195
REMARK INTRA:                  -0.495
REMARK UNBOUND:                -1.466
REMARK SMILES CC1(c2ccc(C#N)cc2)NC(=O)N(CC(=O)c2ccccc2F)C1=O
REMARK SMILES IDX 16 1 17 2 15 3 14 4 2 5 11 6 25 7 12 8 26 9 13 10 1 11 3 13
REMARK SMILES IDX 4 14 10 15 5 16 9 17 6 18 7 19 8 20 18 21 19 22 23 23 20 24
REMARK SMILES IDX 22 25 21 26 24 27
REMARK H PARENT 11 12
ROOT
ATOM      1  C   UNL     1      15.606 -20.197   3.764  1.00  0.00    +0.185 C 
ATOM      2  O   UNL     1      15.347 -21.302   4.249  1.00  0.00    -0.292 OA
ENDROOT
BRANCH   1   3
ATOM      3  C   UNL     1      16.883 -19.929   2.973  1.00  0.00    +0.211 C 
BRANCH   3   4
ATOM      4  N   UNL     1      17.189 -21.080   2.152  1.00  0.00    -0.254 N 
ATOM      5  C   UNL     1      17.468 -22.520   0.294  1.00  0.00    +0.144 C 
ATOM      6  N   UNL     1      18.135 -22.979   1.496  1.00  0.00    -0.319 N 
ATOM      7  C   UNL     1      16.859 -21.201   0.829  1.00  0.00    +0.261 C 
ATOM      8  C   UNL     1      17.986 -22.108   2.547  1.00  0.00    +0.325 C 
ATOM      9  O   UNL     1      16.181 -20.410   0.186  1.00  0.00    -0.271 OA
ATOM     10  O   UNL     1      18.510 -22.257   3.638  1.00  0.00    -0.248 OA
ATOM     11  C   UNL     1      16.304 -23.467  -0.025  1.00  0.00    +0.051 C 
ATOM     12  H   UNL     1      18.785 -23.752   1.546  1.00  0.00    +0.166 HD
BRANCH   5  13
ATOM     13  C   UNL     1      18.481 -22.290  -0.825  1.00  0.00    -0.013 A 
ATOM     14  C   UNL     1      19.840 -22.604  -0.625  1.00  0.00    +0.008 A 
ATOM     15  C   UNL     1      18.111 -21.782  -2.084  1.00  0.00    +0.008 A 
ATOM     16  C   UNL     1      20.791 -22.409  -1.632  1.00  0.00    +0.020 A 
ATOM     17  C   UNL     1      19.062 -21.587  -3.094  1.00  0.00    +0.020 A 
ATOM     18  C   UNL     1      20.404 -21.898  -2.870  1.00  0.00    +0.052 A 
ATOM     19  C   UNL     1      21.375 -21.697  -3.906  1.00  0.00    +0.099 C 
ATOM     20  N   UNL     1      22.155 -21.536  -4.749  1.00  0.00    -0.192 NA
ENDBRANCH   5  13
ENDBRANCH   3   4
ENDBRANCH   1   3
BRANCH   1  21
ATOM     21  C   UNL     1      14.633 -19.087   3.967  1.00  0.00    +0.055 A 
ATOM     22  C   UNL     1      14.496 -18.124   2.954  1.00  0.00    +0.015 A 
ATOM     23  C   UNL     1      13.850 -18.964   5.116  1.00  0.00    +0.134 A 
ATOM     24  C   UNL     1      13.597 -17.063   3.099  1.00  0.00    +0.001 A 
ATOM     25  C   UNL     1      12.952 -17.907   5.263  1.00  0.00    +0.040 A 
ATOM     26  C   UNL     1      12.826 -16.955   4.255  1.00  0.00    +0.003 A 
ATOM     27  F   UNL     1      13.927 -19.858   6.111  1.00  0.00    -0.206 F 
ENDBRANCH   1  21
TORSDOF 4
ENDMDL
MODEL 8
REMARK VINA RESULT:    -7.387      2.349      3.177
REMARK INTER + INTRA:         -10.580
REMARK INTER:                 -10.086
REMARK INTRA:                  -0.495
REMARK UNBOUND:                -1.466
REMARK SMILES CC1(c2ccc(C#N)cc2)NC(=O)N(CC(=O)c2ccccc2F)C1=O
REMARK SMILES IDX 16 1 17 2 15 3 14 4 2 5 11 6 25 7 12 8 26 9 13 10 1 11 3 13
REMARK SMILES IDX 4 14 10 15 5 16 9 17 6 18 7 19 8 20 18 21 19 22 23 23 20 24
REMARK SMILES IDX 22 25 21 26 24 27
REMARK H PARENT 11 12
ROOT
ATOM      1  C   UNL     1      19.242 -22.853  -1.036  1.00  0.00    +0.185 C 
ATOM      2  O   UNL     1      19.515 -23.895  -0.434  1.00  0.00    -0.292 OA
ENDROOT
BRANCH   1   3
ATOM      3  C   UNL     1      18.053 -21.975  -0.656  1.00  0.00    +0.211 C 
BRANCH   3   4
ATOM      4  N   UNL     1      17.518 -22.416   0.614  1.00  0.00    -0.254 N 
ATOM      5  C   UNL     1      16.979 -22.548   2.915  1.00  0.00    +0.144 C 
ATOM      6  N   UNL     1      16.182 -23.421   2.076  1.00  0.00    -0.319 N 
ATOM      7  C   UNL     1      17.857 -21.882   1.827  1.00  0.00    +0.261 C 
ATOM      8  C   UNL     1      16.492 -23.298   0.743  1.00  0.00    +0.325 C 
ATOM      9  O   UNL     1      18.721 -21.037   2.021  1.00  0.00    -0.271 OA
ATOM     10  O   UNL     1      15.909 -23.888  -0.151  1.00  0.00    -0.248 OA
ATOM     11  C   UNL     1      17.902 -23.403   3.792  1.00  0.00    +0.051 C 
ATOM     12  H   UNL     1      15.370 -23.941   2.378  1.00  0.00    +0.166 HD
BRANCH   5  13
ATOM     13  C   UNL     1      16.086 -21.548   3.646  1.00  0.00    -0.013 A 
ATOM     14  C   UNL     1      15.369 -21.945   4.793  1.00  0.00    +0.008 A 
ATOM     15  C   UNL     1      15.953 -20.211   3.228  1.00  0.00    +0.008 A 
ATOM     16  C   UNL     1      14.547 -21.050   5.486  1.00  0.00    +0.020 A 
ATOM     17  C   UNL     1      15.131 -19.314   3.922  1.00  0.00    +0.020 A 
ATOM     18  C   UNL     1      14.425 -19.731   5.052  1.00  0.00    +0.052 A 
ATOM     19  C   UNL     1      13.584 -18.811   5.759  1.00  0.00    +0.099 C 
ATOM     20  N   UNL     1      12.908 -18.060   6.330  1.00  0.00    -0.192 NA
ENDBRANCH   5  13
ENDBRANCH   3   4
ENDBRANCH   1   3
BRANCH   1  21
ATOM     21  C   UNL     1      20.107 -22.446  -2.179  1.00  0.00    +0.055 A 
ATOM     22  C   UNL     1      19.491 -22.080  -3.387  1.00  0.00    +0.015 A 
ATOM     23  C   UNL     1      21.500 -22.406  -2.100  1.00  0.00    +0.134 A 
ATOM     24  C   UNL     1      20.261 -21.692  -4.488  1.00  0.00    +0.001 A 
ATOM     25  C   UNL     1      22.270 -22.018  -3.197  1.00  0.00    +0.040 A 
ATOM     26  C   UNL     1      21.650 -21.662  -4.392  1.00  0.00    +0.003 A 
ATOM     27  F   UNL     1      22.145 -22.731  -0.971  1.00  0.00    -0.206 F 
ENDBRANCH   1  21
TORSDOF 4
ENDMDL
MODEL 9
REMARK VINA RESULT:    -7.314      3.535      4.672
REMARK INTER + INTRA:         -10.490
REMARK INTER:                  -9.780
REMARK INTRA:                  -0.710
REMARK UNBOUND:                -1.466
REMARK SMILES CC1(c2ccc(C#N)cc2)NC(=O)N(CC(=O)c2ccccc2F)C1=O
REMARK SMILES IDX 16 1 17 2 15 3 14 4 2 5 11 6 25 7 12 8 26 9 13 10 1 11 3 13
REMARK SMILES IDX 4 14 10 15 5 16 9 17 6 18 7 19 8 20 18 21 19 22 23 23 20 24
REMARK SMILES IDX 22 25 21 26 24 27
REMARK H PARENT 11 12
ROOT
ATOM      1  C   UNL     1      20.666 -22.837  -3.270  1.00  0.00    +0.185 C 
ATOM      2  O   UNL     1      20.729 -24.037  -2.991  1.00  0.00    -0.292 OA
ENDROOT
BRANCH   1   3
ATOM      3  C   UNL     1      20.421 -21.761  -2.215  1.00  0.00    +0.211 C 
BRANCH   3   4
ATOM      4  N   UNL     1      19.058 -21.857  -1.741  1.00  0.00    -0.254 N 
ATOM      5  C   UNL     1      17.159 -22.286  -0.393  1.00  0.00    +0.144 C 
ATOM      6  N   UNL     1      16.892 -21.417  -1.522  1.00  0.00    -0.319 N 
ATOM      7  C   UNL     1      18.674 -22.525  -0.610  1.00  0.00    +0.261 C 
ATOM      8  C   UNL     1      18.017 -21.157  -2.266  1.00  0.00    +0.325 C 
ATOM      9  O   UNL     1      19.401 -23.211   0.098  1.00  0.00    -0.271 OA
ATOM     10  O   UNL     1      18.044 -20.404  -3.224  1.00  0.00    -0.248 OA
ATOM     11  C   UNL     1      16.446 -23.625  -0.613  1.00  0.00    +0.051 C 
ATOM     12  H   UNL     1      16.034 -20.904  -1.676  1.00  0.00    +0.166 HD
BRANCH   5  13
ATOM     13  C   UNL     1      16.859 -21.565   0.919  1.00  0.00    -0.013 A 
ATOM     14  C   UNL     1      16.719 -22.300   2.114  1.00  0.00    +0.008 A 
ATOM     15  C   UNL     1      16.727 -20.167   0.999  1.00  0.00    +0.008 A 
ATOM     16  C   UNL     1      16.448 -21.669   3.333  1.00  0.00    +0.020 A 
ATOM     17  C   UNL     1      16.457 -19.533   2.219  1.00  0.00    +0.020 A 
ATOM     18  C   UNL     1      16.315 -20.282   3.388  1.00  0.00    +0.052 A 
ATOM     19  C   UNL     1      16.038 -19.631   4.634  1.00  0.00    +0.099 C 
ATOM     20  N   UNL     1      15.818 -19.097   5.641  1.00  0.00    -0.192 NA
ENDBRANCH   5  13
ENDBRANCH   3   4
ENDBRANCH   1   3
BRANCH   1  21
ATOM     21  C   UNL     1      20.830 -22.430  -4.695  1.00  0.00    +0.055 A 
ATOM     22  C   UNL     1      20.163 -23.171  -5.683  1.00  0.00    +0.015 A 
ATOM     23  C   UNL     1      21.613 -21.343  -5.088  1.00  0.00    +0.134 A 
ATOM     24  C   UNL     1      20.288 -22.828  -7.033  1.00  0.00    +0.001 A 
ATOM     25  C   UNL     1      21.738 -20.999  -6.433  1.00  0.00    +0.040 A 
ATOM     26  C   UNL     1      21.076 -21.742  -7.408  1.00  0.00    +0.003 A 
ATOM     27  F   UNL     1      22.263 -20.590  -4.190  1.00  0.00    -0.206 F 
ENDBRANCH   1  21
TORSDOF 4
ENDMDL
