MODEL 1
REMARK VINA RESULT:    -8.697      0.000      0.000
REMARK INTER + INTRA:         -13.260
REMARK INTER:                 -11.493
REMARK INTRA:                  -1.767
REMARK UNBOUND:                -1.767
REMARK SMILES C[C@]1(c2ccc(S(N)(=O)=O)cc2)NC(=O)N(CC(=O)c2ccc(F)cc2F)C1=O
REMARK SMILES IDX 1 1 2 2 13 3 14 4 15 5 16 6 28 7 29 8 3 10 4 11 12 12 5 13
REMARK SMILES IDX 11 14 6 15 7 16 9 17 10 18 8 19 17 22 18 23 19 24 20 25
REMARK SMILES IDX 21 26 26 27 22 28 25 29 23 30 27 31 24 32
REMARK H PARENT 13 9 8 20 8 21
ROOT
ATOM      1  C   UNL     1      18.379 -23.862   4.089  1.00  0.00    +0.051 C 
ATOM      2  C   UNL     1      17.603 -23.056   3.043  1.00  0.00    +0.144 C 
ATOM      3  N   UNL     1      16.791 -23.956   2.247  1.00  0.00    -0.319 N 
ATOM      4  C   UNL     1      17.268 -24.103   0.967  1.00  0.00    +0.325 C 
ATOM      5  O   UNL     1      16.824 -24.902   0.160  1.00  0.00    -0.248 OA
ATOM      6  N   UNL     1      18.292 -23.233   0.782  1.00  0.00    -0.254 N 
ATOM      7  C   UNL     1      18.579 -22.569   1.942  1.00  0.00    +0.261 C 
ATOM      8  O   UNL     1      19.476 -21.747   2.088  1.00  0.00    -0.271 OA
ATOM      9  H   UNL     1      16.116 -24.610   2.617  1.00  0.00    +0.166 HD
ENDROOT
BRANCH   2  10
ATOM     10  C   UNL     1      16.800 -21.909   3.655  1.00  0.00    -0.013 A 
ATOM     11  C   UNL     1      16.507 -20.731   2.941  1.00  0.00    +0.008 A 
ATOM     12  C   UNL     1      16.318 -22.015   4.977  1.00  0.00    +0.008 A 
ATOM     13  C   UNL     1      15.763 -19.700   3.522  1.00  0.00    +0.022 A 
ATOM     14  C   UNL     1      15.573 -20.989   5.563  1.00  0.00    +0.022 A 
ATOM     15  C   UNL     1      15.308 -19.832   4.834  1.00  0.00    +0.082 A 
BRANCH  15  16
ATOM     16  S   UNL     1      14.360 -18.524   5.564  1.00  0.00    +0.238 S 
ATOM     17  O   UNL     1      15.161 -17.892   6.587  1.00  0.00    -0.207 OA
ATOM     18  O   UNL     1      13.024 -19.012   5.813  1.00  0.00    -0.207 OA
BRANCH  16  19
ATOM     19  N   UNL     1      14.282 -17.418   4.297  1.00  0.00    -0.225 NA
ATOM     20  H   UNL     1      15.127 -17.506   3.731  1.00  0.00    +0.137 HD
ATOM     21  H   UNL     1      13.437 -17.509   3.734  1.00  0.00    +0.137 HD
ENDBRANCH  16  19
ENDBRANCH  15  16
ENDBRANCH   2  10
BRANCH   6  22
ATOM     22  C   UNL     1      19.090 -23.167  -0.422  1.00  0.00    +0.211 C 
BRANCH  22  23
ATOM     23  C   UNL     1      18.321 -22.372  -1.475  1.00  0.00    +0.185 C 
ATOM     24  O   UNL     1      18.340 -22.664  -2.672  1.00  0.00    -0.292 OA
BRANCH  23  25
ATOM     25  C   UNL     1      17.519 -21.191  -1.048  1.00  0.00    +0.055 A 
ATOM     26  C   UNL     1      18.197 -20.010  -0.705  1.00  0.00    +0.018 A 
ATOM     27  C   UNL     1      16.123 -21.215  -0.967  1.00  0.00    +0.136 A 
ATOM     28  C   UNL     1      17.482 -18.879  -0.299  1.00  0.00    +0.040 A 
ATOM     29  C   UNL     1      15.408 -20.090  -0.562  1.00  0.00    +0.079 A 
ATOM     30  C   UNL     1      16.095 -18.931  -0.233  1.00  0.00    +0.126 A 
ATOM     31  F   UNL     1      15.430 -22.323  -1.260  1.00  0.00    -0.206 F 
ATOM     32  F   UNL     1      15.413 -17.848   0.156  1.00  0.00    -0.207 F 
ENDBRANCH  23  25
ENDBRANCH  22  23
ENDBRANCH   6  22
TORSDOF 6
ENDMDL
MODEL 2
REMARK VINA RESULT:    -8.427      1.124      1.750
REMARK INTER + INTRA:         -12.903
REMARK INTER:                 -11.375
REMARK INTRA:                  -1.529
REMARK UNBOUND:                -1.767
REMARK SMILES C[C@]1(c2ccc(S(N)(=O)=O)cc2)NC(=O)N(CC(=O)c2ccc(F)cc2F)C1=O
REMARK SMILES IDX 1 1 2 2 13 3 14 4 15 5 16 6 28 7 29 8 3 10 4 11 12 12 5 13
REMARK SMILES IDX 11 14 6 15 7 16 9 17 10 18 8 19 17 22 18 23 19 24 20 25
REMARK SMILES IDX 21 26 26 27 22 28 25 29 23 30 27 31 24 32
REMARK H PARENT 13 9 8 20 8 21
ROOT
ATOM      1  C   UNL     1      19.175 -23.303   4.187  1.00  0.00    +0.051 C 
ATOM      2  C   UNL     1      18.266 -22.720   3.100  1.00  0.00    +0.144 C 
ATOM      3  N   UNL     1      17.606 -23.801   2.394  1.00  0.00    -0.319 N 
ATOM      4  C   UNL     1      18.088 -23.969   1.119  1.00  0.00    +0.325 C 
ATOM      5  O   UNL     1      17.774 -24.892   0.386  1.00  0.00    -0.248 OA
ATOM      6  N   UNL     1      18.953 -22.961   0.844  1.00  0.00    -0.254 N 
ATOM      7  C   UNL     1      19.138 -22.169   1.943  1.00  0.00    +0.261 C 
ATOM      8  O   UNL     1      19.888 -21.203   2.005  1.00  0.00    -0.271 OA
ATOM      9  H   UNL     1      17.052 -24.526   2.828  1.00  0.00    +0.166 HD
ENDROOT
BRANCH   2  10
ATOM     10  C   UNL     1      17.290 -21.675   3.641  1.00  0.00    -0.013 A 
ATOM     11  C   UNL     1      16.724 -20.681   2.821  1.00  0.00    +0.008 A 
ATOM     12  C   UNL     1      16.924 -21.694   5.003  1.00  0.00    +0.008 A 
ATOM     13  C   UNL     1      15.828 -19.741   3.338  1.00  0.00    +0.022 A 
ATOM     14  C   UNL     1      16.028 -20.759   5.527  1.00  0.00    +0.022 A 
ATOM     15  C   UNL     1      15.492 -19.781   4.692  1.00  0.00    +0.082 A 
BRANCH  15  16
ATOM     16  S   UNL     1      14.350 -18.592   5.342  1.00  0.00    +0.238 S 
ATOM     17  O   UNL     1      14.997 -17.875   6.418  1.00  0.00    -0.207 OA
ATOM     18  O   UNL     1      13.064 -19.228   5.495  1.00  0.00    -0.207 OA
BRANCH  16  19
ATOM     19  N   UNL     1      14.241 -17.498   4.067  1.00  0.00    -0.225 NA
ATOM     20  H   UNL     1      14.523 -16.575   4.400  1.00  0.00    +0.137 HD
ATOM     21  H   UNL     1      14.774 -17.783   3.246  1.00  0.00    +0.137 HD
ENDBRANCH  16  19
ENDBRANCH  15  16
ENDBRANCH   2  10
BRANCH   6  22
ATOM     22  C   UNL     1      19.717 -22.861  -0.379  1.00  0.00    +0.211 C 
BRANCH  22  23
ATOM     23  C   UNL     1      19.174 -21.694  -1.200  1.00  0.00    +0.185 C 
ATOM     24  O   UNL     1      19.907 -20.860  -1.736  1.00  0.00    -0.292 OA
BRANCH  23  25
ATOM     25  C   UNL     1      17.700 -21.545  -1.361  1.00  0.00    +0.055 A 
ATOM     26  C   UNL     1      17.006 -22.517  -2.101  1.00  0.00    +0.018 A 
ATOM     27  C   UNL     1      16.984 -20.476  -0.813  1.00  0.00    +0.136 A 
ATOM     28  C   UNL     1      15.623 -22.415  -2.276  1.00  0.00    +0.040 A 
ATOM     29  C   UNL     1      15.606 -20.372  -0.985  1.00  0.00    +0.079 A 
ATOM     30  C   UNL     1      14.937 -21.344  -1.715  1.00  0.00    +0.126 A 
ATOM     31  F   UNL     1      17.601 -19.511  -0.118  1.00  0.00    -0.206 F 
ATOM     32  F   UNL     1      13.613 -21.249  -1.884  1.00  0.00    -0.207 F 
ENDBRANCH  23  25
ENDBRANCH  22  23
ENDBRANCH   6  22
TORSDOF 6
ENDMDL
MODEL 3
REMARK VINA RESULT:    -8.163      3.578      7.214
REMARK INTER + INTRA:         -12.555
REMARK INTER:                 -11.797
REMARK INTRA:                  -0.758
REMARK UNBOUND:                -1.767
REMARK SMILES C[C@]1(c2ccc(S(N)(=O)=O)cc2)NC(=O)N(CC(=O)c2ccc(F)cc2F)C1=O
REMARK SMILES IDX 1 1 2 2 13 3 14 4 15 5 16 6 28 7 29 8 3 10 4 11 12 12 5 13
REMARK SMILES IDX 11 14 6 15 7 16 9 17 10 18 8 19 17 22 18 23 19 24 20 25
REMARK SMILES IDX 21 26 26 27 22 28 25 29 23 30 27 31 24 32
REMARK H PARENT 13 9 8 20 8 21
ROOT
ATOM      1  C   UNL     1      16.131 -23.489   0.692  1.00  0.00    +0.051 C 
ATOM      2  C   UNL     1      17.324 -22.546   0.878  1.00  0.00    +0.144 C 
ATOM      3  N   UNL     1      18.118 -22.992   2.008  1.00  0.00    -0.319 N 
ATOM      4  C   UNL     1      18.003 -22.159   3.093  1.00  0.00    +0.325 C 
ATOM      5  O   UNL     1      18.476 -22.399   4.191  1.00  0.00    -0.248 OA
ATOM      6  N   UNL     1      17.282 -21.069   2.731  1.00  0.00    -0.254 N 
ATOM      7  C   UNL     1      16.826 -21.194   1.448  1.00  0.00    +0.261 C 
ATOM      8  O   UNL     1      16.120 -20.383   0.861  1.00  0.00    -0.271 OA
ATOM      9  H   UNL     1      18.506 -23.919   2.115  1.00  0.00    +0.166 HD
ENDROOT
BRANCH   2  10
ATOM     10  C   UNL     1      18.146 -22.372  -0.399  1.00  0.00    -0.013 A 
ATOM     11  C   UNL     1      19.552 -22.301  -0.383  1.00  0.00    +0.008 A 
ATOM     12  C   UNL     1      17.495 -22.284  -1.647  1.00  0.00    +0.008 A 
ATOM     13  C   UNL     1      20.281 -22.148  -1.566  1.00  0.00    +0.022 A 
ATOM     14  C   UNL     1      18.217 -22.133  -2.833  1.00  0.00    +0.022 A 
ATOM     15  C   UNL     1      19.608 -22.057  -2.785  1.00  0.00    +0.082 A 
BRANCH  15  16
ATOM     16  S   UNL     1      20.536 -21.870  -4.282  1.00  0.00    +0.238 S 
ATOM     17  O   UNL     1      20.665 -23.167  -4.907  1.00  0.00    -0.207 OA
ATOM     18  O   UNL     1      21.672 -21.021  -4.013  1.00  0.00    -0.207 OA
BRANCH  16  19
ATOM     19  N   UNL     1      19.456 -21.006  -5.243  1.00  0.00    -0.225 NA
ATOM     20  H   UNL     1      18.505 -21.284  -4.999  1.00  0.00    +0.137 HD
ATOM     21  H   UNL     1      19.584 -19.997  -5.183  1.00  0.00    +0.137 HD
ENDBRANCH  16  19
ENDBRANCH  15  16
ENDBRANCH   2  10
BRANCH   6  22
ATOM     22  C   UNL     1      16.890 -20.018   3.643  1.00  0.00    +0.211 C 
BRANCH  22  23
ATOM     23  C   UNL     1      15.481 -20.312   4.153  1.00  0.00    +0.185 C 
ATOM     24  O   UNL     1      15.062 -21.459   4.320  1.00  0.00    -0.292 OA
BRANCH  23  25
ATOM     25  C   UNL     1      14.568 -19.175   4.456  1.00  0.00    +0.055 A 
ATOM     26  C   UNL     1      13.982 -19.109   5.732  1.00  0.00    +0.018 A 
ATOM     27  C   UNL     1      14.265 -18.179   3.523  1.00  0.00    +0.136 A 
ATOM     28  C   UNL     1      13.120 -18.059   6.058  1.00  0.00    +0.040 A 
ATOM     29  C   UNL     1      13.406 -17.130   3.845  1.00  0.00    +0.079 A 
ATOM     30  C   UNL     1      12.841 -17.080   5.112  1.00  0.00    +0.126 A 
ATOM     31  F   UNL     1      14.779 -18.207   2.286  1.00  0.00    -0.206 F 
ATOM     32  F   UNL     1      12.015 -16.075   5.426  1.00  0.00    -0.207 F 
ENDBRANCH  23  25
ENDBRANCH  22  23
ENDBRANCH   6  22
TORSDOF 6
ENDMDL
MODEL 4
REMARK VINA RESULT:    -8.083      3.780      7.039
REMARK INTER + INTRA:         -12.449
REMARK INTER:                 -11.482
REMARK INTRA:                  -0.967
REMARK UNBOUND:                -1.767
REMARK SMILES C[C@]1(c2ccc(S(N)(=O)=O)cc2)NC(=O)N(CC(=O)c2ccc(F)cc2F)C1=O
REMARK SMILES IDX 1 1 2 2 13 3 14 4 15 5 16 6 28 7 29 8 3 10 4 11 12 12 5 13
REMARK SMILES IDX 11 14 6 15 7 16 9 17 10 18 8 19 17 22 18 23 19 24 20 25
REMARK SMILES IDX 21 26 26 27 22 28 25 29 23 30 27 31 24 32
REMARK H PARENT 13 9 8 20 8 21
ROOT
ATOM      1  C   UNL     1      16.023 -23.796   1.116  1.00  0.00    +0.051 C 
ATOM      2  C   UNL     1      17.434 -23.230   1.304  1.00  0.00    +0.144 C 
ATOM      3  N   UNL     1      18.209 -24.135   2.131  1.00  0.00    -0.319 N 
ATOM      4  C   UNL     1      18.442 -23.632   3.388  1.00  0.00    +0.325 C 
ATOM      5  O   UNL     1      18.961 -24.265   4.292  1.00  0.00    -0.248 OA
ATOM      6  N   UNL     1      17.993 -22.353   3.435  1.00  0.00    -0.254 N 
ATOM      7  C   UNL     1      17.375 -22.014   2.263  1.00  0.00    +0.261 C 
ATOM      8  O   UNL     1      16.841 -20.936   2.026  1.00  0.00    -0.271 OA
ATOM      9  H   UNL     1      18.352 -25.117   1.941  1.00  0.00    +0.166 HD
ENDROOT
BRANCH   2  10
ATOM     10  C   UNL     1      18.119 -22.894  -0.020  1.00  0.00    -0.013 A 
ATOM     11  C   UNL     1      17.395 -22.492  -1.159  1.00  0.00    +0.008 A 
ATOM     12  C   UNL     1      19.523 -22.973  -0.125  1.00  0.00    +0.008 A 
ATOM     13  C   UNL     1      18.046 -22.182  -2.356  1.00  0.00    +0.022 A 
ATOM     14  C   UNL     1      20.181 -22.664  -1.318  1.00  0.00    +0.022 A 
ATOM     15  C   UNL     1      19.437 -22.278  -2.431  1.00  0.00    +0.082 A 
BRANCH  15  16
ATOM     16  S   UNL     1      20.258 -21.878  -3.949  1.00  0.00    +0.238 S 
ATOM     17  O   UNL     1      20.299 -23.064  -4.775  1.00  0.00    -0.207 OA
ATOM     18  O   UNL     1      21.437 -21.104  -3.641  1.00  0.00    -0.207 OA
BRANCH  16  19
ATOM     19  N   UNL     1      19.138 -20.854  -4.678  1.00  0.00    -0.225 NA
ATOM     20  H   UNL     1      19.428 -19.887  -4.524  1.00  0.00    +0.137 HD
ATOM     21  H   UNL     1      18.995 -21.054  -5.667  1.00  0.00    +0.137 HD
ENDBRANCH  16  19
ENDBRANCH  15  16
ENDBRANCH   2  10
BRANCH   6  22
ATOM     22  C   UNL     1      17.997 -21.537   4.628  1.00  0.00    +0.211 C 
BRANCH  22  23
ATOM     23  C   UNL     1      16.697 -21.780   5.391  1.00  0.00    +0.185 C 
ATOM     24  O   UNL     1      16.403 -22.878   5.869  1.00  0.00    -0.292 OA
BRANCH  23  25
ATOM     25  C   UNL     1      15.738 -20.653   5.565  1.00  0.00    +0.055 A 
ATOM     26  C   UNL     1      16.208 -19.455   6.128  1.00  0.00    +0.018 A 
ATOM     27  C   UNL     1      14.391 -20.744   5.201  1.00  0.00    +0.136 A 
ATOM     28  C   UNL     1      15.341 -18.374   6.309  1.00  0.00    +0.040 A 
ATOM     29  C   UNL     1      13.524 -19.668   5.380  1.00  0.00    +0.079 A 
ATOM     30  C   UNL     1      14.008 -18.491   5.932  1.00  0.00    +0.126 A 
ATOM     31  F   UNL     1      13.887 -21.872   4.682  1.00  0.00    -0.206 F 
ATOM     32  F   UNL     1      13.180 -17.455   6.106  1.00  0.00    -0.207 F 
ENDBRANCH  23  25
ENDBRANCH  22  23
ENDBRANCH   6  22
TORSDOF 6
ENDMDL
MODEL 5
REMARK VINA RESULT:    -7.712      2.309      4.426
REMARK INTER + INTRA:         -11.958
REMARK INTER:                 -10.451
REMARK INTRA:                  -1.507
REMARK UNBOUND:                -1.767
REMARK SMILES C[C@]1(c2ccc(S(N)(=O)=O)cc2)NC(=O)N(CC(=O)c2ccc(F)cc2F)C1=O
REMARK SMILES IDX 1 1 2 2 13 3 14 4 15 5 16 6 28 7 29 8 3 10 4 11 12 12 5 13
REMARK SMILES IDX 11 14 6 15 7 16 9 17 10 18 8 19 17 22 18 23 19 24 20 25
REMARK SMILES IDX 21 26 26 27 22 28 25 29 23 30 27 31 24 32
REMARK H PARENT 13 9 8 20 8 21
ROOT
ATOM      1  C   UNL     1      16.844 -19.133  -1.040  1.00  0.00    +0.051 C 
ATOM      2  C   UNL     1      17.031 -20.061   0.163  1.00  0.00    +0.144 C 
ATOM      3  N   UNL     1      18.448 -20.245   0.413  1.00  0.00    -0.319 N 
ATOM      4  C   UNL     1      18.883 -21.504   0.080  1.00  0.00    +0.325 C 
ATOM      5  O   UNL     1      20.054 -21.846   0.085  1.00  0.00    -0.248 OA
ATOM      6  N   UNL     1      17.809 -22.261  -0.254  1.00  0.00    -0.254 N 
ATOM      7  C   UNL     1      16.666 -21.510  -0.245  1.00  0.00    +0.261 C 
ATOM      8  O   UNL     1      15.547 -21.915  -0.538  1.00  0.00    -0.271 OA
ATOM      9  H   UNL     1      19.114 -19.499   0.561  1.00  0.00    +0.166 HD
ENDROOT
BRANCH   2  10
ATOM     10  C   UNL     1      16.262 -19.594   1.398  1.00  0.00    -0.013 A 
ATOM     11  C   UNL     1      16.447 -20.180   2.665  1.00  0.00    +0.008 A 
ATOM     12  C   UNL     1      15.335 -18.536   1.290  1.00  0.00    +0.008 A 
ATOM     13  C   UNL     1      15.736 -19.728   3.781  1.00  0.00    +0.022 A 
ATOM     14  C   UNL     1      14.622 -18.078   2.401  1.00  0.00    +0.022 A 
ATOM     15  C   UNL     1      14.820 -18.685   3.640  1.00  0.00    +0.082 A 
BRANCH  15  16
ATOM     16  S   UNL     1      13.926 -18.112   5.058  1.00  0.00    +0.238 S 
ATOM     17  O   UNL     1      13.243 -19.237   5.655  1.00  0.00    -0.207 OA
ATOM     18  O   UNL     1      13.248 -16.887   4.707  1.00  0.00    -0.207 OA
BRANCH  16  19
ATOM     19  N   UNL     1      15.180 -17.728   6.114  1.00  0.00    -0.225 NA
ATOM     20  H   UNL     1      15.868 -17.162   5.615  1.00  0.00    +0.137 HD
ATOM     21  H   UNL     1      14.861 -17.271   6.968  1.00  0.00    +0.137 HD
ENDBRANCH  16  19
ENDBRANCH  15  16
ENDBRANCH   2  10
BRANCH   6  22
ATOM     22  C   UNL     1      17.895 -23.620  -0.740  1.00  0.00    +0.211 C 
BRANCH  22  23
ATOM     23  C   UNL     1      17.580 -24.572   0.411  1.00  0.00    +0.185 C 
ATOM     24  O   UNL     1      16.876 -25.575   0.270  1.00  0.00    -0.292 OA
BRANCH  23  25
ATOM     25  C   UNL     1      18.135 -24.283   1.763  1.00  0.00    +0.055 A 
ATOM     26  C   UNL     1      19.456 -24.672   2.041  1.00  0.00    +0.018 A 
ATOM     27  C   UNL     1      17.394 -23.649   2.765  1.00  0.00    +0.136 A 
ATOM     28  C   UNL     1      20.016 -24.420   3.296  1.00  0.00    +0.040 A 
ATOM     29  C   UNL     1      17.949 -23.396   4.018  1.00  0.00    +0.079 A 
ATOM     30  C   UNL     1      19.257 -23.784   4.271  1.00  0.00    +0.126 A 
ATOM     31  F   UNL     1      16.124 -23.278   2.559  1.00  0.00    -0.206 F 
ATOM     32  F   UNL     1      19.794 -23.543   5.473  1.00  0.00    -0.207 F 
ENDBRANCH  23  25
ENDBRANCH  22  23
ENDBRANCH   6  22
TORSDOF 6
ENDMDL
MODEL 6
REMARK VINA RESULT:    -7.566      4.318      6.905
REMARK INTER + INTRA:         -11.765
REMARK INTER:                 -10.797
REMARK INTRA:                  -0.968
REMARK UNBOUND:                -1.767
REMARK SMILES C[C@]1(c2ccc(S(N)(=O)=O)cc2)NC(=O)N(CC(=O)c2ccc(F)cc2F)C1=O
REMARK SMILES IDX 1 1 2 2 13 3 14 4 15 5 16 6 28 7 29 8 3 10 4 11 12 12 5 13
REMARK SMILES IDX 11 14 6 15 7 16 9 17 10 18 8 19 17 22 18 23 19 24 20 25
REMARK SMILES IDX 21 26 26 27 22 28 25 29 23 30 27 31 24 32
REMARK H PARENT 13 9 8 20 8 21
ROOT
ATOM      1  C   UNL     1      20.811 -23.455   0.035  1.00  0.00    +0.051 C 
ATOM      2  C   UNL     1      20.527 -23.480   1.540  1.00  0.00    +0.144 C 
ATOM      3  N   UNL     1      19.900 -24.741   1.890  1.00  0.00    -0.319 N 
ATOM      4  C   UNL     1      18.572 -24.599   2.206  1.00  0.00    +0.325 C 
ATOM      5  O   UNL     1      17.814 -25.533   2.408  1.00  0.00    -0.248 OA
ATOM      6  N   UNL     1      18.270 -23.277   2.238  1.00  0.00    -0.254 N 
ATOM      7  C   UNL     1      19.348 -22.526   1.856  1.00  0.00    +0.261 C 
ATOM      8  O   UNL     1      19.364 -21.305   1.756  1.00  0.00    -0.271 OA
ATOM      9  H   UNL     1      20.280 -25.655   1.686  1.00  0.00    +0.166 HD
ENDROOT
BRANCH   2  10
ATOM     10  C   UNL     1      21.765 -23.173   2.382  1.00  0.00    -0.013 A 
ATOM     11  C   UNL     1      21.996 -23.786   3.628  1.00  0.00    +0.008 A 
ATOM     12  C   UNL     1      22.725 -22.255   1.911  1.00  0.00    +0.008 A 
ATOM     13  C   UNL     1      23.140 -23.494   4.376  1.00  0.00    +0.022 A 
ATOM     14  C   UNL     1      23.872 -21.958   2.651  1.00  0.00    +0.022 A 
ATOM     15  C   UNL     1      24.069 -22.574   3.886  1.00  0.00    +0.082 A 
BRANCH  15  16
ATOM     16  S   UNL     1      25.521 -22.212   4.834  1.00  0.00    +0.238 S 
ATOM     17  O   UNL     1      25.593 -20.783   5.035  1.00  0.00    -0.207 OA
ATOM     18  O   UNL     1      26.621 -22.977   4.297  1.00  0.00    -0.207 OA
BRANCH  16  19
ATOM     19  N   UNL     1      25.116 -22.864   6.332  1.00  0.00    -0.225 NA
ATOM     20  H   UNL     1      24.099 -22.927   6.399  1.00  0.00    +0.137 HD
ATOM     21  H   UNL     1      25.565 -23.761   6.515  1.00  0.00    +0.137 HD
ENDBRANCH  16  19
ENDBRANCH  15  16
ENDBRANCH   2  10
BRANCH   6  22
ATOM     22  C   UNL     1      16.940 -22.754   2.457  1.00  0.00    +0.211 C 
BRANCH  22  23
ATOM     23  C   UNL     1      16.849 -22.233   3.890  1.00  0.00    +0.185 C 
ATOM     24  O   UNL     1      17.574 -22.651   4.795  1.00  0.00    -0.292 OA
BRANCH  23  25
ATOM     25  C   UNL     1      15.844 -21.184   4.216  1.00  0.00    +0.055 A 
ATOM     26  C   UNL     1      14.799 -21.509   5.097  1.00  0.00    +0.018 A 
ATOM     27  C   UNL     1      15.894 -19.895   3.676  1.00  0.00    +0.136 A 
ATOM     28  C   UNL     1      13.834 -20.554   5.430  1.00  0.00    +0.040 A 
ATOM     29  C   UNL     1      14.934 -18.940   4.006  1.00  0.00    +0.079 A 
ATOM     30  C   UNL     1      13.913 -19.279   4.882  1.00  0.00    +0.126 A 
ATOM     31  F   UNL     1      16.856 -19.540   2.815  1.00  0.00    -0.206 F 
ATOM     32  F   UNL     1      12.989 -18.366   5.201  1.00  0.00    -0.207 F 
ENDBRANCH  23  25
ENDBRANCH  22  23
ENDBRANCH   6  22
TORSDOF 6
ENDMDL
MODEL 7
REMARK VINA RESULT:    -7.547      3.439      6.675
REMARK INTER + INTRA:         -11.740
REMARK INTER:                 -11.183
REMARK INTRA:                  -0.557
REMARK UNBOUND:                -1.767
REMARK SMILES C[C@]1(c2ccc(S(N)(=O)=O)cc2)NC(=O)N(CC(=O)c2ccc(F)cc2F)C1=O
REMARK SMILES IDX 1 1 2 2 13 3 14 4 15 5 16 6 28 7 29 8 3 10 4 11 12 12 5 13
REMARK SMILES IDX 11 14 6 15 7 16 9 17 10 18 8 19 17 22 18 23 19 24 20 25
REMARK SMILES IDX 21 26 26 27 22 28 25 29 23 30 27 31 24 32
REMARK H PARENT 13 9 8 20 8 21
ROOT
ATOM      1  C   UNL     1      19.546 -22.111  -0.145  1.00  0.00    +0.051 C 
ATOM      2  C   UNL     1      18.182 -22.366   0.502  1.00  0.00    +0.144 C 
ATOM      3  N   UNL     1      17.153 -21.685  -0.262  1.00  0.00    -0.319 N 
ATOM      4  C   UNL     1      16.640 -20.596   0.399  1.00  0.00    +0.325 C 
ATOM      5  O   UNL     1      15.859 -19.802  -0.096  1.00  0.00    -0.248 OA
ATOM      6  N   UNL     1      17.155 -20.566   1.654  1.00  0.00    -0.254 N 
ATOM      7  C   UNL     1      18.080 -21.559   1.821  1.00  0.00    +0.261 C 
ATOM      8  O   UNL     1      18.735 -21.757   2.838  1.00  0.00    -0.271 OA
ATOM      9  H   UNL     1      16.992 -21.802  -1.252  1.00  0.00    +0.166 HD
ENDROOT
BRANCH   2  10
ATOM     10  C   UNL     1      17.891 -23.852   0.705  1.00  0.00    -0.013 A 
ATOM     11  C   UNL     1      18.741 -24.688   1.455  1.00  0.00    +0.008 A 
ATOM     12  C   UNL     1      16.733 -24.426   0.140  1.00  0.00    +0.008 A 
ATOM     13  C   UNL     1      18.449 -26.043   1.632  1.00  0.00    +0.022 A 
ATOM     14  C   UNL     1      16.434 -25.779   0.314  1.00  0.00    +0.022 A 
ATOM     15  C   UNL     1      17.299 -26.583   1.053  1.00  0.00    +0.082 A 
BRANCH  15  16
ATOM     16  S   UNL     1      16.929 -28.300   1.287  1.00  0.00    +0.238 S 
ATOM     17  O   UNL     1      18.165 -29.047   1.234  1.00  0.00    -0.207 OA
ATOM     18  O   UNL     1      15.783 -28.635   0.477  1.00  0.00    -0.207 OA
BRANCH  16  19
ATOM     19  N   UNL     1      16.451 -28.325   2.901  1.00  0.00    -0.225 NA
ATOM     20  H   UNL     1      15.442 -28.479   2.943  1.00  0.00    +0.137 HD
ATOM     21  H   UNL     1      16.963 -29.005   3.462  1.00  0.00    +0.137 HD
ENDBRANCH  16  19
ENDBRANCH  15  16
ENDBRANCH   2  10
BRANCH   6  22
ATOM     22  C   UNL     1      16.902 -19.510   2.608  1.00  0.00    +0.211 C 
BRANCH  22  23
ATOM     23  C   UNL     1      15.746 -19.934   3.511  1.00  0.00    +0.185 C 
ATOM     24  O   UNL     1      15.618 -21.086   3.929  1.00  0.00    -0.292 OA
BRANCH  23  25
ATOM     25  C   UNL     1      14.724 -18.922   3.902  1.00  0.00    +0.055 A 
ATOM     26  C   UNL     1      14.163 -19.001   5.187  1.00  0.00    +0.018 A 
ATOM     27  C   UNL     1      14.297 -17.907   3.041  1.00  0.00    +0.136 A 
ATOM     28  C   UNL     1      13.201 -18.073   5.595  1.00  0.00    +0.040 A 
ATOM     29  C   UNL     1      13.338 -16.980   3.444  1.00  0.00    +0.079 A 
ATOM     30  C   UNL     1      12.799 -17.071   4.719  1.00  0.00    +0.126 A 
ATOM     31  F   UNL     1      14.783 -17.801   1.797  1.00  0.00    -0.206 F 
ATOM     32  F   UNL     1      11.878 -16.183   5.110  1.00  0.00    -0.207 F 
ENDBRANCH  23  25
ENDBRANCH  22  23
ENDBRANCH   6  22
TORSDOF 6
ENDMDL
MODEL 8
REMARK VINA RESULT:    -7.458      3.549      4.744
REMARK INTER + INTRA:         -11.623
REMARK INTER:                 -10.853
REMARK INTRA:                  -0.770
REMARK UNBOUND:                -1.767
REMARK SMILES C[C@]1(c2ccc(S(N)(=O)=O)cc2)NC(=O)N(CC(=O)c2ccc(F)cc2F)C1=O
REMARK SMILES IDX 1 1 2 2 13 3 14 4 15 5 16 6 28 7 29 8 3 10 4 11 12 12 5 13
REMARK SMILES IDX 11 14 6 15 7 16 9 17 10 18 8 19 17 22 18 23 19 24 20 25
REMARK SMILES IDX 21 26 26 27 22 28 25 29 23 30 27 31 24 32
REMARK H PARENT 13 9 8 20 8 21
ROOT
ATOM      1  C   UNL     1      16.567 -23.599  -0.298  1.00  0.00    +0.051 C 
ATOM      2  C   UNL     1      17.286 -22.292   0.051  1.00  0.00    +0.144 C 
ATOM      3  N   UNL     1      17.097 -21.337  -1.024  1.00  0.00    -0.319 N 
ATOM      4  C   UNL     1      18.244 -21.125  -1.748  1.00  0.00    +0.325 C 
ATOM      5  O   UNL     1      18.294 -20.463  -2.771  1.00  0.00    -0.248 OA
ATOM      6  N   UNL     1      19.269 -21.774  -1.141  1.00  0.00    -0.254 N 
ATOM      7  C   UNL     1      18.816 -22.500  -0.073  1.00  0.00    +0.261 C 
ATOM      8  O   UNL     1      19.506 -23.214   0.645  1.00  0.00    -0.271 OA
ATOM      9  H   UNL     1      16.202 -21.046  -1.392  1.00  0.00    +0.166 HD
ENDROOT
BRANCH   2  10
ATOM     10  C   UNL     1      16.883 -21.741   1.418  1.00  0.00    -0.013 A 
ATOM     11  C   UNL     1      16.811 -20.360   1.680  1.00  0.00    +0.008 A 
ATOM     12  C   UNL     1      16.560 -22.628   2.466  1.00  0.00    +0.008 A 
ATOM     13  C   UNL     1      16.433 -19.881   2.938  1.00  0.00    +0.022 A 
ATOM     14  C   UNL     1      16.179 -22.158   3.725  1.00  0.00    +0.022 A 
ATOM     15  C   UNL     1      16.127 -20.785   3.956  1.00  0.00    +0.082 A 
BRANCH  15  16
ATOM     16  S   UNL     1      15.641 -20.173   5.547  1.00  0.00    +0.238 S 
ATOM     17  O   UNL     1      16.490 -20.775   6.549  1.00  0.00    -0.207 OA
ATOM     18  O   UNL     1      14.200 -20.204   5.628  1.00  0.00    -0.207 OA
BRANCH  16  19
ATOM     19  N   UNL     1      16.122 -18.563   5.450  1.00  0.00    -0.225 NA
ATOM     20  H   UNL     1      16.071 -18.263   4.475  1.00  0.00    +0.137 HD
ATOM     21  H   UNL     1      15.591 -17.947   6.064  1.00  0.00    +0.137 HD
ENDBRANCH  16  19
ENDBRANCH  15  16
ENDBRANCH   2  10
BRANCH   6  22
ATOM     22  C   UNL     1      20.612 -21.842  -1.670  1.00  0.00    +0.211 C 
BRANCH  22  23
ATOM     23  C   UNL     1      20.666 -22.942  -2.728  1.00  0.00    +0.185 C 
ATOM     24  O   UNL     1      20.635 -24.140  -2.441  1.00  0.00    -0.292 OA
BRANCH  23  25
ATOM     25  C   UNL     1      20.767 -22.561  -4.165  1.00  0.00    +0.055 A 
ATOM     26  C   UNL     1      20.116 -23.363  -5.117  1.00  0.00    +0.018 A 
ATOM     27  C   UNL     1      21.488 -21.445  -4.602  1.00  0.00    +0.136 A 
ATOM     28  C   UNL     1      20.185 -23.042  -6.475  1.00  0.00    +0.040 A 
ATOM     29  C   UNL     1      21.558 -21.122  -5.955  1.00  0.00    +0.079 A 
ATOM     30  C   UNL     1      20.905 -21.924  -6.880  1.00  0.00    +0.126 A 
ATOM     31  F   UNL     1      22.145 -20.661  -3.738  1.00  0.00    -0.206 F 
ATOM     32  F   UNL     1      20.970 -21.617  -8.181  1.00  0.00    -0.207 F 
ENDBRANCH  23  25
ENDBRANCH  22  23
ENDBRANCH   6  22
TORSDOF 6
ENDMDL
MODEL 9
REMARK VINA RESULT:    -7.271      2.918      4.235
REMARK INTER + INTRA:         -11.376
REMARK INTER:                 -10.290
REMARK INTRA:                  -1.085
REMARK UNBOUND:                -1.767
REMARK SMILES C[C@]1(c2ccc(S(N)(=O)=O)cc2)NC(=O)N(CC(=O)c2ccc(F)cc2F)C1=O
REMARK SMILES IDX 1 1 2 2 13 3 14 4 15 5 16 6 28 7 29 8 3 10 4 11 12 12 5 13
REMARK SMILES IDX 11 14 6 15 7 16 9 17 10 18 8 19 17 22 18 23 19 24 20 25
REMARK SMILES IDX 21 26 26 27 22 28 25 29 23 30 27 31 24 32
REMARK H PARENT 13 9 8 20 8 21
ROOT
ATOM      1  C   UNL     1      17.620 -23.154   4.383  1.00  0.00    +0.051 C 
ATOM      2  C   UNL     1      16.999 -22.434   3.182  1.00  0.00    +0.144 C 
ATOM      3  N   UNL     1      16.287 -23.395   2.362  1.00  0.00    -0.319 N 
ATOM      4  C   UNL     1      16.926 -23.648   1.173  1.00  0.00    +0.325 C 
ATOM      5  O   UNL     1      16.581 -24.510   0.382  1.00  0.00    -0.248 OA
ATOM      6  N   UNL     1      17.977 -22.799   1.054  1.00  0.00    -0.254 N 
ATOM      7  C   UNL     1      18.118 -22.043   2.185  1.00  0.00    +0.261 C 
ATOM      8  O   UNL     1      19.000 -21.214   2.380  1.00  0.00    -0.271 OA
ATOM      9  H   UNL     1      15.561 -24.015   2.691  1.00  0.00    +0.166 HD
ENDROOT
BRANCH   2  10
ATOM     10  C   UNL     1      16.138 -21.239   3.588  1.00  0.00    -0.013 A 
ATOM     11  C   UNL     1      15.350 -21.243   4.755  1.00  0.00    +0.008 A 
ATOM     12  C   UNL     1      16.123 -20.079   2.787  1.00  0.00    +0.008 A 
ATOM     13  C   UNL     1      14.576 -20.134   5.108  1.00  0.00    +0.022 A 
ATOM     14  C   UNL     1      15.354 -18.966   3.134  1.00  0.00    +0.022 A 
ATOM     15  C   UNL     1      14.577 -19.003   4.290  1.00  0.00    +0.082 A 
BRANCH  15  16
ATOM     16  S   UNL     1      13.600 -17.597   4.745  1.00  0.00    +0.238 S 
ATOM     17  O   UNL     1      14.326 -16.835   5.735  1.00  0.00    -0.207 OA
ATOM     18  O   UNL     1      12.238 -18.031   4.944  1.00  0.00    -0.207 OA
BRANCH  16  19
ATOM     19  N   UNL     1      13.653 -16.679   3.335  1.00  0.00    -0.225 NA
ATOM     20  H   UNL     1      14.585 -16.758   2.925  1.00  0.00    +0.137 HD
ATOM     21  H   UNL     1      12.923 -16.926   2.667  1.00  0.00    +0.137 HD
ENDBRANCH  16  19
ENDBRANCH  15  16
ENDBRANCH   2  10
BRANCH   6  22
ATOM     22  C   UNL     1      18.928 -22.834  -0.035  1.00  0.00    +0.211 C 
BRANCH  22  23
ATOM     23  C   UNL     1      19.948 -23.936   0.242  1.00  0.00    +0.185 C 
ATOM     24  O   UNL     1      20.052 -24.939  -0.468  1.00  0.00    -0.292 OA
BRANCH  23  25
ATOM     25  C   UNL     1      20.854 -23.806   1.417  1.00  0.00    +0.055 A 
ATOM     26  C   UNL     1      21.961 -22.947   1.317  1.00  0.00    +0.018 A 
ATOM     27  C   UNL     1      20.652 -24.509   2.609  1.00  0.00    +0.136 A 
ATOM     28  C   UNL     1      22.836 -22.795   2.396  1.00  0.00    +0.040 A 
ATOM     29  C   UNL     1      21.522 -24.361   3.687  1.00  0.00    +0.079 A 
ATOM     30  C   UNL     1      22.607 -23.503   3.570  1.00  0.00    +0.126 A 
ATOM     31  F   UNL     1      19.625 -25.358   2.748  1.00  0.00    -0.206 F 
ATOM     32  F   UNL     1      23.446 -23.357   4.602  1.00  0.00    -0.207 F 
ENDBRANCH  23  25
ENDBRANCH  22  23
ENDBRANCH   6  22
TORSDOF 6
ENDMDL
