MODEL 1
REMARK VINA RESULT:    -9.010      0.000      0.000
REMARK INTER + INTRA:         -13.040
REMARK INTER:                 -11.907
REMARK INTRA:                  -1.133
REMARK UNBOUND:                -1.133
REMARK SMILES CC1(c2ccc(S(N)(=O)=O)cc2)NC(=O)N(CC(=O)c2ncc(F)cc2F)C1=O
REMARK SMILES IDX 1 1 2 2 13 3 14 4 15 5 16 6 28 7 29 8 3 10 4 11 12 12 5 13
REMARK SMILES IDX 11 14 6 15 7 16 9 17 10 18 8 19 17 22 18 23 19 24 20 25
REMARK SMILES IDX 21 26 26 27 22 28 25 29 23 30 27 31 24 32
REMARK H PARENT 13 9 8 20 8 21
ROOT
ATOM      1  C   UNL     1      18.384 -22.444  -2.497  1.00  0.00    +0.051 C 
ATOM      2  C   UNL     1      18.488 -21.496  -1.301  1.00  0.00    +0.144 C 
ATOM      3  N   UNL     1      18.754 -20.148  -1.762  1.00  0.00    -0.319 N 
ATOM      4  C   UNL     1      17.759 -19.266  -1.427  1.00  0.00    +0.325 C 
ATOM      5  O   UNL     1      17.766 -18.084  -1.726  1.00  0.00    -0.248 OA
ATOM      6  N   UNL     1      16.783 -19.935  -0.764  1.00  0.00    -0.254 N 
ATOM      7  C   UNL     1      17.088 -21.265  -0.674  1.00  0.00    +0.261 C 
ATOM      8  O   UNL     1      16.380 -22.129  -0.171  1.00  0.00    -0.271 OA
ATOM      9  H   UNL     1      19.563 -19.850  -2.288  1.00  0.00    +0.166 HD
ENDROOT
BRANCH   2  10
ATOM     10  C   UNL     1      19.504 -21.984  -0.266  1.00  0.00    -0.013 A 
ATOM     11  C   UNL     1      19.419 -21.535   1.068  1.00  0.00    +0.008 A 
ATOM     12  C   UNL     1      20.543 -22.878  -0.592  1.00  0.00    +0.008 A 
ATOM     13  C   UNL     1      20.330 -21.959   2.040  1.00  0.00    +0.022 A 
ATOM     14  C   UNL     1      21.457 -23.308   0.374  1.00  0.00    +0.022 A 
ATOM     15  C   UNL     1      21.339 -22.853   1.688  1.00  0.00    +0.082 A 
BRANCH  15  16
ATOM     16  S   UNL     1      22.512 -23.389   2.905  1.00  0.00    +0.238 S 
ATOM     17  O   UNL     1      22.815 -24.780   2.667  1.00  0.00    -0.207 OA
ATOM     18  O   UNL     1      23.536 -22.378   3.034  1.00  0.00    -0.207 OA
BRANCH  16  19
ATOM     19  N   UNL     1      21.598 -23.293   4.316  1.00  0.00    -0.225 NA
ATOM     20  H   UNL     1      21.831 -24.011   4.999  1.00  0.00    +0.137 HD
ATOM     21  H   UNL     1      20.606 -23.308   4.066  1.00  0.00    +0.137 HD
ENDBRANCH  16  19
ENDBRANCH  15  16
ENDBRANCH   2  10
BRANCH   6  22
ATOM     22  C   UNL     1      15.590 -19.316  -0.234  1.00  0.00    +0.213 C 
BRANCH  22  23
ATOM     23  C   UNL     1      15.719 -18.439   1.005  1.00  0.00    +0.204 C 
ATOM     24  O   UNL     1      15.912 -17.226   0.895  1.00  0.00    -0.290 OA
BRANCH  23  25
ATOM     25  C   UNL     1      15.593 -19.022   2.360  1.00  0.00    +0.144 A 
ATOM     26  N   UNL     1      16.479 -20.000   2.703  1.00  0.00    -0.247 NA
ATOM     27  C   UNL     1      14.628 -18.522   3.232  1.00  0.00    +0.155 A 
ATOM     28  C   UNL     1      16.385 -20.469   3.972  1.00  0.00    +0.151 A 
ATOM     29  C   UNL     1      14.550 -19.036   4.519  1.00  0.00    +0.082 A 
ATOM     30  C   UNL     1      15.449 -20.023   4.892  1.00  0.00    +0.144 A 
ATOM     31  F   UNL     1      13.756 -17.575   2.858  1.00  0.00    -0.204 F 
ATOM     32  F   UNL     1      15.410 -20.539   6.126  1.00  0.00    -0.205 F 
ENDBRANCH  23  25
ENDBRANCH  22  23
ENDBRANCH   6  22
TORSDOF 6
ENDMDL
MODEL 2
REMARK VINA RESULT:    -8.983      3.362      6.561
REMARK INTER + INTRA:         -13.004
REMARK INTER:                 -11.127
REMARK INTRA:                  -1.877
REMARK UNBOUND:                -1.133
REMARK SMILES CC1(c2ccc(S(N)(=O)=O)cc2)NC(=O)N(CC(=O)c2ncc(F)cc2F)C1=O
REMARK SMILES IDX 1 1 2 2 13 3 14 4 15 5 16 6 28 7 29 8 3 10 4 11 12 12 5 13
REMARK SMILES IDX 11 14 6 15 7 16 9 17 10 18 8 19 17 22 18 23 19 24 20 25
REMARK SMILES IDX 21 26 26 27 22 28 25 29 23 30 27 31 24 32
REMARK H PARENT 13 9 8 20 8 21
ROOT
ATOM      1  C   UNL     1      18.216 -23.846   4.594  1.00  0.00    +0.051 C 
ATOM      2  C   UNL     1      18.177 -22.816   3.464  1.00  0.00    +0.144 C 
ATOM      3  N   UNL     1      19.512 -22.319   3.203  1.00  0.00    -0.319 N 
ATOM      4  C   UNL     1      19.944 -22.596   1.932  1.00  0.00    +0.325 C 
ATOM      5  O   UNL     1      21.042 -22.285   1.501  1.00  0.00    -0.248 OA
ATOM      6  N   UNL     1      18.979 -23.291   1.281  1.00  0.00    -0.254 N 
ATOM      7  C   UNL     1      17.911 -23.516   2.106  1.00  0.00    +0.261 C 
ATOM      8  O   UNL     1      16.906 -24.154   1.816  1.00  0.00    -0.271 OA
ATOM      9  H   UNL     1      20.102 -21.829   3.862  1.00  0.00    +0.166 HD
ENDROOT
BRANCH   2  10
ATOM     10  C   UNL     1      17.167 -21.699   3.738  1.00  0.00    -0.013 A 
ATOM     11  C   UNL     1      16.505 -21.640   4.982  1.00  0.00    +0.008 A 
ATOM     12  C   UNL     1      16.860 -20.709   2.784  1.00  0.00    +0.008 A 
ATOM     13  C   UNL     1      15.576 -20.635   5.267  1.00  0.00    +0.022 A 
ATOM     14  C   UNL     1      15.934 -19.700   3.062  1.00  0.00    +0.022 A 
ATOM     15  C   UNL     1      15.304 -19.663   4.306  1.00  0.00    +0.082 A 
BRANCH  15  16
ATOM     16  S   UNL     1      14.117 -18.390   4.646  1.00  0.00    +0.238 S 
ATOM     17  O   UNL     1      13.936 -17.602   3.450  1.00  0.00    -0.207 OA
ATOM     18  O   UNL     1      13.012 -18.972   5.372  1.00  0.00    -0.207 OA
BRANCH  16  19
ATOM     19  N   UNL     1      14.949 -17.447   5.766  1.00  0.00    -0.225 NA
ATOM     20  H   UNL     1      15.836 -17.090   5.415  1.00  0.00    +0.137 HD
ATOM     21  H   UNL     1      15.067 -17.987   6.626  1.00  0.00    +0.137 HD
ENDBRANCH  16  19
ENDBRANCH  15  16
ENDBRANCH   2  10
BRANCH   6  22
ATOM     22  C   UNL     1      19.078 -23.729  -0.092  1.00  0.00    +0.213 C 
BRANCH  22  23
ATOM     23  C   UNL     1      18.844 -22.706  -1.197  1.00  0.00    +0.204 C 
ATOM     24  O   UNL     1      19.405 -22.825  -2.288  1.00  0.00    -0.290 OA
BRANCH  23  25
ATOM     25  C   UNL     1      17.925 -21.565  -0.988  1.00  0.00    +0.144 A 
ATOM     26  N   UNL     1      18.488 -20.340  -0.782  1.00  0.00    -0.247 NA
ATOM     27  C   UNL     1      16.549 -21.773  -1.061  1.00  0.00    +0.155 A 
ATOM     28  C   UNL     1      17.624 -19.301  -0.661  1.00  0.00    +0.151 A 
ATOM     29  C   UNL     1      15.694 -20.689  -0.918  1.00  0.00    +0.082 A 
ATOM     30  C   UNL     1      16.245 -19.434  -0.719  1.00  0.00    +0.144 A 
ATOM     31  F   UNL     1      16.025 -22.993  -1.243  1.00  0.00    -0.204 F 
ATOM     32  F   UNL     1      15.454 -18.363  -0.582  1.00  0.00    -0.205 F 
ENDBRANCH  23  25
ENDBRANCH  22  23
ENDBRANCH   6  22
TORSDOF 6
ENDMDL
MODEL 3
REMARK VINA RESULT:    -8.738      3.515      6.258
REMARK INTER + INTRA:         -12.681
REMARK INTER:                 -11.312
REMARK INTRA:                  -1.369
REMARK UNBOUND:                -1.133
REMARK SMILES CC1(c2ccc(S(N)(=O)=O)cc2)NC(=O)N(CC(=O)c2ncc(F)cc2F)C1=O
REMARK SMILES IDX 1 1 2 2 13 3 14 4 15 5 16 6 28 7 29 8 3 10 4 11 12 12 5 13
REMARK SMILES IDX 11 14 6 15 7 16 9 17 10 18 8 19 17 22 18 23 19 24 20 25
REMARK SMILES IDX 21 26 26 27 22 28 25 29 23 30 27 31 24 32
REMARK H PARENT 13 9 8 20 8 21
ROOT
ATOM      1  C   UNL     1      17.319 -18.511  -0.792  1.00  0.00    +0.051 C 
ATOM      2  C   UNL     1      16.649 -19.710  -0.121  1.00  0.00    +0.144 C 
ATOM      3  N   UNL     1      15.692 -20.312  -1.027  1.00  0.00    -0.319 N 
ATOM      4  C   UNL     1      16.003 -21.608  -1.344  1.00  0.00    +0.325 C 
ATOM      5  O   UNL     1      15.346 -22.303  -2.102  1.00  0.00    -0.248 OA
ATOM      6  N   UNL     1      17.157 -21.950  -0.719  1.00  0.00    -0.254 N 
ATOM      7  C   UNL     1      17.648 -20.891  -0.006  1.00  0.00    +0.261 C 
ATOM      8  O   UNL     1      18.697 -20.879   0.627  1.00  0.00    -0.271 OA
ATOM      9  H   UNL     1      14.878 -19.857  -1.418  1.00  0.00    +0.166 HD
ENDROOT
BRANCH   2  10
ATOM     10  C   UNL     1      16.039 -19.344   1.235  1.00  0.00    -0.013 A 
ATOM     11  C   UNL     1      15.148 -18.256   1.334  1.00  0.00    +0.008 A 
ATOM     12  C   UNL     1      16.336 -20.058   2.412  1.00  0.00    +0.008 A 
ATOM     13  C   UNL     1      14.572 -17.894   2.555  1.00  0.00    +0.022 A 
ATOM     14  C   UNL     1      15.764 -19.703   3.637  1.00  0.00    +0.022 A 
ATOM     15  C   UNL     1      14.877 -18.627   3.700  1.00  0.00    +0.082 A 
BRANCH  15  16
ATOM     16  S   UNL     1      14.168 -18.171   5.259  1.00  0.00    +0.238 S 
ATOM     17  O   UNL     1      13.497 -16.903   5.104  1.00  0.00    -0.207 OA
ATOM     18  O   UNL     1      13.521 -19.331   5.827  1.00  0.00    -0.207 OA
BRANCH  16  19
ATOM     19  N   UNL     1      15.547 -17.918   6.193  1.00  0.00    -0.225 NA
ATOM     20  H   UNL     1      16.081 -17.098   5.910  1.00  0.00    +0.137 HD
ATOM     21  H   UNL     1      16.113 -18.769   6.179  1.00  0.00    +0.137 HD
ENDBRANCH  16  19
ENDBRANCH  15  16
ENDBRANCH   2  10
BRANCH   6  22
ATOM     22  C   UNL     1      17.771 -23.254  -0.803  1.00  0.00    +0.213 C 
BRANCH  22  23
ATOM     23  C   UNL     1      17.532 -24.242   0.333  1.00  0.00    +0.204 C 
ATOM     24  O   UNL     1      16.902 -25.283   0.133  1.00  0.00    -0.290 OA
BRANCH  23  25
ATOM     25  C   UNL     1      18.069 -23.981   1.687  1.00  0.00    +0.144 A 
ATOM     26  N   UNL     1      19.406 -24.173   1.876  1.00  0.00    -0.247 NA
ATOM     27  C   UNL     1      17.214 -23.510   2.681  1.00  0.00    +0.155 A 
ATOM     28  C   UNL     1      19.883 -23.862   3.107  1.00  0.00    +0.151 A 
ATOM     29  C   UNL     1      17.734 -23.216   3.935  1.00  0.00    +0.082 A 
ATOM     30  C   UNL     1      19.093 -23.392   4.145  1.00  0.00    +0.144 A 
ATOM     31  F   UNL     1      15.900 -23.352   2.472  1.00  0.00    -0.204 F 
ATOM     32  F   UNL     1      19.633 -23.115   5.337  1.00  0.00    -0.205 F 
ENDBRANCH  23  25
ENDBRANCH  22  23
ENDBRANCH   6  22
TORSDOF 6
ENDMDL
MODEL 4
REMARK VINA RESULT:    -8.396      1.443      2.021
REMARK INTER + INTRA:         -12.228
REMARK INTER:                 -11.549
REMARK INTRA:                  -0.679
REMARK UNBOUND:                -1.133
REMARK SMILES CC1(c2ccc(S(N)(=O)=O)cc2)NC(=O)N(CC(=O)c2ncc(F)cc2F)C1=O
REMARK SMILES IDX 1 1 2 2 13 3 14 4 15 5 16 6 28 7 29 8 3 10 4 11 12 12 5 13
REMARK SMILES IDX 11 14 6 15 7 16 9 17 10 18 8 19 17 22 18 23 19 24 20 25
REMARK SMILES IDX 21 26 26 27 22 28 25 29 23 30 27 31 24 32
REMARK H PARENT 13 9 8 20 8 21
ROOT
ATOM      1  C   UNL     1      17.898 -22.392  -2.409  1.00  0.00    +0.051 C 
ATOM      2  C   UNL     1      18.291 -21.432  -1.286  1.00  0.00    +0.144 C 
ATOM      3  N   UNL     1      18.503 -20.104  -1.824  1.00  0.00    -0.319 N 
ATOM      4  C   UNL     1      17.638 -19.175  -1.306  1.00  0.00    +0.325 C 
ATOM      5  O   UNL     1      17.626 -17.999  -1.627  1.00  0.00    -0.248 OA
ATOM      6  N   UNL     1      16.801 -19.792  -0.435  1.00  0.00    -0.254 N 
ATOM      7  C   UNL     1      17.068 -21.133  -0.380  1.00  0.00    +0.261 C 
ATOM      8  O   UNL     1      16.451 -21.959   0.282  1.00  0.00    -0.271 OA
ATOM      9  H   UNL     1      19.192 -19.848  -2.518  1.00  0.00    +0.166 HD
ENDROOT
BRANCH   2  10
ATOM     10  C   UNL     1      19.486 -21.947  -0.480  1.00  0.00    -0.013 A 
ATOM     11  C   UNL     1      19.602 -21.625   0.888  1.00  0.00    +0.008 A 
ATOM     12  C   UNL     1      20.496 -22.743  -1.054  1.00  0.00    +0.008 A 
ATOM     13  C   UNL     1      20.679 -22.077   1.655  1.00  0.00    +0.022 A 
ATOM     14  C   UNL     1      21.576 -23.202  -0.294  1.00  0.00    +0.022 A 
ATOM     15  C   UNL     1      21.656 -22.873   1.060  1.00  0.00    +0.082 A 
BRANCH  15  16
ATOM     16  S   UNL     1      23.037 -23.443   2.015  1.00  0.00    +0.238 S 
ATOM     17  O   UNL     1      22.628 -24.608   2.762  1.00  0.00    -0.207 OA
ATOM     18  O   UNL     1      24.214 -23.427   1.178  1.00  0.00    -0.207 OA
BRANCH  16  19
ATOM     19  N   UNL     1      23.238 -22.174   3.104  1.00  0.00    -0.225 NA
ATOM     20  H   UNL     1      22.781 -21.312   2.810  1.00  0.00    +0.137 HD
ATOM     21  H   UNL     1      24.237 -22.040   3.271  1.00  0.00    +0.137 HD
ENDBRANCH  16  19
ENDBRANCH  15  16
ENDBRANCH   2  10
BRANCH   6  22
ATOM     22  C   UNL     1      15.774 -19.116   0.322  1.00  0.00    +0.213 C 
BRANCH  22  23
ATOM     23  C   UNL     1      16.012 -18.870   1.807  1.00  0.00    +0.204 C 
ATOM     24  O   UNL     1      17.086 -19.181   2.328  1.00  0.00    -0.290 OA
BRANCH  23  25
ATOM     25  C   UNL     1      14.970 -18.236   2.645  1.00  0.00    +0.144 A 
ATOM     26  N   UNL     1      14.340 -17.139   2.134  1.00  0.00    -0.247 NA
ATOM     27  C   UNL     1      14.643 -18.804   3.875  1.00  0.00    +0.155 A 
ATOM     28  C   UNL     1      13.344 -16.619   2.893  1.00  0.00    +0.151 A 
ATOM     29  C   UNL     1      13.627 -18.236   4.632  1.00  0.00    +0.082 A 
ATOM     30  C   UNL     1      12.966 -17.128   4.127  1.00  0.00    +0.144 A 
ATOM     31  F   UNL     1      15.294 -19.869   4.360  1.00  0.00    -0.204 F 
ATOM     32  F   UNL     1      11.978 -16.555   4.823  1.00  0.00    -0.205 F 
ENDBRANCH  23  25
ENDBRANCH  22  23
ENDBRANCH   6  22
TORSDOF 6
ENDMDL
MODEL 5
REMARK VINA RESULT:    -8.313      2.822      4.025
REMARK INTER + INTRA:         -12.118
REMARK INTER:                 -11.800
REMARK INTRA:                  -0.318
REMARK UNBOUND:                -1.133
REMARK SMILES CC1(c2ccc(S(N)(=O)=O)cc2)NC(=O)N(CC(=O)c2ncc(F)cc2F)C1=O
REMARK SMILES IDX 1 1 2 2 13 3 14 4 15 5 16 6 28 7 29 8 3 10 4 11 12 12 5 13
REMARK SMILES IDX 11 14 6 15 7 16 9 17 10 18 8 19 17 22 18 23 19 24 20 25
REMARK SMILES IDX 21 26 26 27 22 28 25 29 23 30 27 31 24 32
REMARK H PARENT 13 9 8 20 8 21
ROOT
ATOM      1  C   UNL     1      15.822 -22.608  -1.004  1.00  0.00    +0.051 C 
ATOM      2  C   UNL     1      16.865 -21.523  -0.736  1.00  0.00    +0.144 C 
ATOM      3  N   UNL     1      16.328 -20.224  -1.092  1.00  0.00    -0.319 N 
ATOM      4  C   UNL     1      16.251 -19.370  -0.023  1.00  0.00    +0.325 C 
ATOM      5  O   UNL     1      15.816 -18.233  -0.087  1.00  0.00    -0.248 OA
ATOM      6  N   UNL     1      16.691 -20.013   1.088  1.00  0.00    -0.254 N 
ATOM      7  C   UNL     1      17.035 -21.303   0.790  1.00  0.00    +0.261 C 
ATOM      8  O   UNL     1      17.424 -22.143   1.593  1.00  0.00    -0.271 OA
ATOM      9  H   UNL     1      16.018 -19.943  -2.011  1.00  0.00    +0.166 HD
ENDROOT
BRANCH   2  10
ATOM     10  C   UNL     1      18.199 -21.825  -1.422  1.00  0.00    -0.013 A 
ATOM     11  C   UNL     1      18.391 -21.469  -2.773  1.00  0.00    +0.008 A 
ATOM     12  C   UNL     1      19.265 -22.457  -0.752  1.00  0.00    +0.008 A 
ATOM     13  C   UNL     1      19.597 -21.730  -3.431  1.00  0.00    +0.022 A 
ATOM     14  C   UNL     1      20.474 -22.720  -1.402  1.00  0.00    +0.022 A 
ATOM     15  C   UNL     1      20.636 -22.346  -2.737  1.00  0.00    +0.082 A 
BRANCH  15  16
ATOM     16  S   UNL     1      22.165 -22.698  -3.562  1.00  0.00    +0.238 S 
ATOM     17  O   UNL     1      22.913 -23.636  -2.759  1.00  0.00    -0.207 OA
ATOM     18  O   UNL     1      21.893 -22.915  -4.964  1.00  0.00    -0.207 OA
BRANCH  16  19
ATOM     19  N   UNL     1      22.943 -21.206  -3.476  1.00  0.00    -0.225 NA
ATOM     20  H   UNL     1      23.895 -21.225  -3.839  1.00  0.00    +0.137 HD
ATOM     21  H   UNL     1      22.908 -20.873  -2.510  1.00  0.00    +0.137 HD
ENDBRANCH  16  19
ENDBRANCH  15  16
ENDBRANCH   2  10
BRANCH   6  22
ATOM     22  C   UNL     1      16.777 -19.409   2.397  1.00  0.00    +0.213 C 
BRANCH  22  23
ATOM     23  C   UNL     1      15.704 -19.750   3.424  1.00  0.00    +0.204 C 
ATOM     24  O   UNL     1      15.701 -20.848   3.984  1.00  0.00    -0.290 OA
BRANCH  23  25
ATOM     25  C   UNL     1      14.660 -18.764   3.782  1.00  0.00    +0.144 A 
ATOM     26  N   UNL     1      14.304 -17.857   2.827  1.00  0.00    -0.247 NA
ATOM     27  C   UNL     1      14.057 -18.833   5.036  1.00  0.00    +0.155 A 
ATOM     28  C   UNL     1      13.299 -17.009   3.158  1.00  0.00    +0.151 A 
ATOM     29  C   UNL     1      13.041 -17.939   5.347  1.00  0.00    +0.082 A 
ATOM     30  C   UNL     1      12.656 -17.016   4.387  1.00  0.00    +0.144 A 
ATOM     31  F   UNL     1      14.443 -19.721   5.962  1.00  0.00    -0.204 F 
ATOM     32  F   UNL     1      11.677 -16.142   4.645  1.00  0.00    -0.205 F 
ENDBRANCH  23  25
ENDBRANCH  22  23
ENDBRANCH   6  22
TORSDOF 6
ENDMDL
MODEL 6
REMARK VINA RESULT:    -8.179      4.658      8.089
REMARK INTER + INTRA:         -11.942
REMARK INTER:                 -11.032
REMARK INTRA:                  -0.909
REMARK UNBOUND:                -1.133
REMARK SMILES CC1(c2ccc(S(N)(=O)=O)cc2)NC(=O)N(CC(=O)c2ncc(F)cc2F)C1=O
REMARK SMILES IDX 1 1 2 2 13 3 14 4 15 5 16 6 28 7 29 8 3 10 4 11 12 12 5 13
REMARK SMILES IDX 11 14 6 15 7 16 9 17 10 18 8 19 17 22 18 23 19 24 20 25
REMARK SMILES IDX 21 26 26 27 22 28 25 29 23 30 27 31 24 32
REMARK H PARENT 13 9 8 20 8 21
ROOT
ATOM      1  C   UNL     1      16.985 -23.681   2.632  1.00  0.00    +0.051 C 
ATOM      2  C   UNL     1      17.414 -22.235   2.381  1.00  0.00    +0.144 C 
ATOM      3  N   UNL     1      18.818 -22.075   2.703  1.00  0.00    -0.319 N 
ATOM      4  C   UNL     1      19.573 -21.703   1.622  1.00  0.00    +0.325 C 
ATOM      5  O   UNL     1      20.779 -21.527   1.658  1.00  0.00    -0.248 OA
ATOM      6  N   UNL     1      18.769 -21.614   0.533  1.00  0.00    -0.254 N 
ATOM      7  C   UNL     1      17.483 -21.950   0.858  1.00  0.00    +0.261 C 
ATOM      8  O   UNL     1      16.540 -22.007   0.078  1.00  0.00    -0.271 OA
ATOM      9  H   UNL     1      19.239 -22.224   3.610  1.00  0.00    +0.166 HD
ENDROOT
BRANCH   2  10
ATOM     10  C   UNL     1      16.516 -21.232   3.109  1.00  0.00    -0.013 A 
ATOM     11  C   UNL     1      15.790 -21.638   4.248  1.00  0.00    +0.008 A 
ATOM     12  C   UNL     1      16.377 -19.897   2.683  1.00  0.00    +0.008 A 
ATOM     13  C   UNL     1      14.960 -20.749   4.938  1.00  0.00    +0.022 A 
ATOM     14  C   UNL     1      15.550 -19.002   3.368  1.00  0.00    +0.022 A 
ATOM     15  C   UNL     1      14.853 -19.431   4.498  1.00  0.00    +0.082 A 
BRANCH  15  16
ATOM     16  S   UNL     1      13.792 -18.296   5.352  1.00  0.00    +0.238 S 
ATOM     17  O   UNL     1      12.460 -18.851   5.386  1.00  0.00    -0.207 OA
ATOM     18  O   UNL     1      14.475 -17.832   6.538  1.00  0.00    -0.207 OA
BRANCH  16  19
ATOM     19  N   UNL     1      13.781 -16.987   4.293  1.00  0.00    -0.225 NA
ATOM     20  H   UNL     1      13.679 -17.257   3.317  1.00  0.00    +0.137 HD
ATOM     21  H   UNL     1      14.625 -16.430   4.451  1.00  0.00    +0.137 HD
ENDBRANCH  16  19
ENDBRANCH  15  16
ENDBRANCH   2  10
BRANCH   6  22
ATOM     22  C   UNL     1      19.220 -21.218  -0.781  1.00  0.00    +0.213 C 
BRANCH  22  23
ATOM     23  C   UNL     1      19.733 -22.298  -1.725  1.00  0.00    +0.204 C 
ATOM     24  O   UNL     1      19.571 -23.491  -1.458  1.00  0.00    -0.290 OA
BRANCH  23  25
ATOM     25  C   UNL     1      20.416 -21.936  -2.988  1.00  0.00    +0.144 A 
ATOM     26  N   UNL     1      19.628 -21.580  -4.043  1.00  0.00    -0.247 NA
ATOM     27  C   UNL     1      21.808 -21.921  -3.032  1.00  0.00    +0.155 A 
ATOM     28  C   UNL     1      20.280 -21.188  -5.166  1.00  0.00    +0.151 A 
ATOM     29  C   UNL     1      22.443 -21.528  -4.203  1.00  0.00    +0.082 A 
ATOM     30  C   UNL     1      21.662 -21.152  -5.283  1.00  0.00    +0.144 A 
ATOM     31  F   UNL     1      22.555 -22.297  -1.985  1.00  0.00    -0.204 F 
ATOM     32  F   UNL     1      22.235 -20.762  -6.427  1.00  0.00    -0.205 F 
ENDBRANCH  23  25
ENDBRANCH  22  23
ENDBRANCH   6  22
TORSDOF 6
ENDMDL
MODEL 7
REMARK VINA RESULT:    -8.158      3.379      5.098
REMARK INTER + INTRA:         -11.914
REMARK INTER:                 -11.112
REMARK INTRA:                  -0.802
REMARK UNBOUND:                -1.133
REMARK SMILES CC1(c2ccc(S(N)(=O)=O)cc2)NC(=O)N(CC(=O)c2ncc(F)cc2F)C1=O
REMARK SMILES IDX 1 1 2 2 13 3 14 4 15 5 16 6 28 7 29 8 3 10 4 11 12 12 5 13
REMARK SMILES IDX 11 14 6 15 7 16 9 17 10 18 8 19 17 22 18 23 19 24 20 25
REMARK SMILES IDX 21 26 26 27 22 28 25 29 23 30 27 31 24 32
REMARK H PARENT 13 9 8 20 8 21
ROOT
ATOM      1  C   UNL     1      21.211 -22.959   1.971  1.00  0.00    +0.051 C 
ATOM      2  C   UNL     1      19.900 -22.991   1.184  1.00  0.00    +0.144 C 
ATOM      3  N   UNL     1      19.227 -24.256   1.399  1.00  0.00    -0.319 N 
ATOM      4  C   UNL     1      18.001 -24.112   1.995  1.00  0.00    +0.325 C 
ATOM      5  O   UNL     1      17.268 -25.043   2.284  1.00  0.00    -0.248 OA
ATOM      6  N   UNL     1      17.780 -22.796   2.236  1.00  0.00    -0.254 N 
ATOM      7  C   UNL     1      18.856 -22.049   1.838  1.00  0.00    +0.261 C 
ATOM      8  O   UNL     1      18.971 -20.836   1.967  1.00  0.00    -0.271 OA
ATOM      9  H   UNL     1      19.591 -25.169   1.164  1.00  0.00    +0.166 HD
ENDROOT
BRANCH   2  10
ATOM     10  C   UNL     1      20.109 -22.671  -0.298  1.00  0.00    -0.013 A 
ATOM     11  C   UNL     1      19.127 -21.948  -1.006  1.00  0.00    +0.008 A 
ATOM     12  C   UNL     1      21.260 -23.075  -1.001  1.00  0.00    +0.008 A 
ATOM     13  C   UNL     1      19.284 -21.637  -2.360  1.00  0.00    +0.022 A 
ATOM     14  C   UNL     1      21.426 -22.767  -2.354  1.00  0.00    +0.022 A 
ATOM     15  C   UNL     1      20.440 -22.041  -3.024  1.00  0.00    +0.082 A 
BRANCH  15  16
ATOM     16  S   UNL     1      20.649 -21.669  -4.745  1.00  0.00    +0.238 S 
ATOM     17  O   UNL     1      21.739 -20.734  -4.882  1.00  0.00    -0.207 OA
ATOM     18  O   UNL     1      20.580 -22.903  -5.494  1.00  0.00    -0.207 OA
BRANCH  16  19
ATOM     19  N   UNL     1      19.217 -20.851  -5.086  1.00  0.00    -0.225 NA
ATOM     20  H   UNL     1      19.014 -20.790  -6.082  1.00  0.00    +0.137 HD
ATOM     21  H   UNL     1      19.253 -19.929  -4.645  1.00  0.00    +0.137 HD
ENDBRANCH  16  19
ENDBRANCH  15  16
ENDBRANCH   2  10
BRANCH   6  22
ATOM     22  C   UNL     1      16.575 -22.269   2.830  1.00  0.00    +0.213 C 
BRANCH  22  23
ATOM     23  C   UNL     1      16.582 -21.949   4.320  1.00  0.00    +0.204 C 
ATOM     24  O   UNL     1      17.339 -22.552   5.085  1.00  0.00    -0.290 OA
BRANCH  23  25
ATOM     25  C   UNL     1      15.699 -20.897   4.872  1.00  0.00    +0.144 A 
ATOM     26  N   UNL     1      16.286 -19.725   5.250  1.00  0.00    -0.247 NA
ATOM     27  C   UNL     1      14.325 -21.122   4.934  1.00  0.00    +0.155 A 
ATOM     28  C   UNL     1      15.446 -18.755   5.689  1.00  0.00    +0.151 A 
ATOM     29  C   UNL     1      13.496 -20.111   5.403  1.00  0.00    +0.082 A 
ATOM     30  C   UNL     1      14.070 -18.908   5.781  1.00  0.00    +0.144 A 
ATOM     31  F   UNL     1      13.781 -22.293   4.576  1.00  0.00    -0.204 F 
ATOM     32  F   UNL     1      13.305 -17.908   6.232  1.00  0.00    -0.205 F 
ENDBRANCH  23  25
ENDBRANCH  22  23
ENDBRANCH   6  22
TORSDOF 6
ENDMDL
MODEL 8
REMARK VINA RESULT:    -8.140      4.570      7.927
REMARK INTER + INTRA:         -11.890
REMARK INTER:                 -11.192
REMARK INTRA:                  -0.698
REMARK UNBOUND:                -1.133
REMARK SMILES CC1(c2ccc(S(N)(=O)=O)cc2)NC(=O)N(CC(=O)c2ncc(F)cc2F)C1=O
REMARK SMILES IDX 1 1 2 2 13 3 14 4 15 5 16 6 28 7 29 8 3 10 4 11 12 12 5 13
REMARK SMILES IDX 11 14 6 15 7 16 9 17 10 18 8 19 17 22 18 23 19 24 20 25
REMARK SMILES IDX 21 26 26 27 22 28 25 29 23 30 27 31 24 32
REMARK H PARENT 13 9 8 20 8 21
ROOT
ATOM      1  C   UNL     1      17.493 -18.352  -0.982  1.00  0.00    +0.051 C 
ATOM      2  C   UNL     1      16.990 -19.680  -0.416  1.00  0.00    +0.144 C 
ATOM      3  N   UNL     1      16.089 -20.309  -1.360  1.00  0.00    -0.319 N 
ATOM      4  C   UNL     1      16.545 -21.524  -1.802  1.00  0.00    +0.325 C 
ATOM      5  O   UNL     1      15.957 -22.221  -2.611  1.00  0.00    -0.248 OA
ATOM      6  N   UNL     1      17.747 -21.778  -1.228  1.00  0.00    -0.254 N 
ATOM      7  C   UNL     1      18.126 -20.736  -0.427  1.00  0.00    +0.261 C 
ATOM      8  O   UNL     1      19.182 -20.654   0.189  1.00  0.00    -0.271 OA
ATOM      9  H   UNL     1      15.217 -19.923  -1.695  1.00  0.00    +0.166 HD
ENDROOT
BRANCH   2  10
ATOM     10  C   UNL     1      16.376 -19.517   0.977  1.00  0.00    -0.013 A 
ATOM     11  C   UNL     1      16.734 -20.405   2.011  1.00  0.00    +0.008 A 
ATOM     12  C   UNL     1      15.448 -18.500   1.277  1.00  0.00    +0.008 A 
ATOM     13  C   UNL     1      16.194 -20.287   3.295  1.00  0.00    +0.022 A 
ATOM     14  C   UNL     1      14.905 -18.373   2.559  1.00  0.00    +0.022 A 
ATOM     15  C   UNL     1      15.288 -19.262   3.564  1.00  0.00    +0.082 A 
BRANCH  15  16
ATOM     16  S   UNL     1      14.581 -19.107   5.182  1.00  0.00    +0.238 S 
ATOM     17  O   UNL     1      13.483 -18.172   5.114  1.00  0.00    -0.207 OA
ATOM     18  O   UNL     1      14.448 -20.426   5.755  1.00  0.00    -0.207 OA
BRANCH  16  19
ATOM     19  N   UNL     1      15.838 -18.370   6.027  1.00  0.00    -0.225 NA
ATOM     20  H   UNL     1      15.691 -17.375   6.183  1.00  0.00    +0.137 HD
ATOM     21  H   UNL     1      16.716 -18.556   5.537  1.00  0.00    +0.137 HD
ENDBRANCH  16  19
ENDBRANCH  15  16
ENDBRANCH   2  10
BRANCH   6  22
ATOM     22  C   UNL     1      18.511 -22.984  -1.443  1.00  0.00    +0.213 C 
BRANCH  22  23
ATOM     23  C   UNL     1      19.879 -22.867  -2.104  1.00  0.00    +0.204 C 
ATOM     24  O   UNL     1      20.909 -23.027  -1.444  1.00  0.00    -0.290 OA
BRANCH  23  25
ATOM     25  C   UNL     1      19.997 -22.580  -3.551  1.00  0.00    +0.144 A 
ATOM     26  N   UNL     1      19.653 -21.328  -3.969  1.00  0.00    -0.247 NA
ATOM     27  C   UNL     1      20.494 -23.563  -4.404  1.00  0.00    +0.155 A 
ATOM     28  C   UNL     1      19.834 -21.071  -5.289  1.00  0.00    +0.151 A 
ATOM     29  C   UNL     1      20.653 -23.270  -5.752  1.00  0.00    +0.082 A 
ATOM     30  C   UNL     1      20.320 -22.001  -6.196  1.00  0.00    +0.144 A 
ATOM     31  F   UNL     1      20.803 -24.792  -3.968  1.00  0.00    -0.204 F 
ATOM     32  F   UNL     1      20.464 -21.678  -7.486  1.00  0.00    -0.205 F 
ENDBRANCH  23  25
ENDBRANCH  22  23
ENDBRANCH   6  22
TORSDOF 6
ENDMDL
MODEL 9
REMARK VINA RESULT:    -7.856      3.466      5.716
REMARK INTER + INTRA:         -11.515
REMARK INTER:                 -10.054
REMARK INTRA:                  -1.461
REMARK UNBOUND:                -1.133
REMARK SMILES CC1(c2ccc(S(N)(=O)=O)cc2)NC(=O)N(CC(=O)c2ncc(F)cc2F)C1=O
REMARK SMILES IDX 1 1 2 2 13 3 14 4 15 5 16 6 28 7 29 8 3 10 4 11 12 12 5 13
REMARK SMILES IDX 11 14 6 15 7 16 9 17 10 18 8 19 17 22 18 23 19 24 20 25
REMARK SMILES IDX 21 26 26 27 22 28 25 29 23 30 27 31 24 32
REMARK H PARENT 13 9 8 20 8 21
ROOT
ATOM      1  C   UNL     1      18.251 -25.648   2.192  1.00  0.00    +0.051 C 
ATOM      2  C   UNL     1      18.433 -24.173   1.833  1.00  0.00    +0.144 C 
ATOM      3  N   UNL     1      19.844 -23.860   1.728  1.00  0.00    -0.319 N 
ATOM      4  C   UNL     1      20.204 -23.441   0.474  1.00  0.00    +0.325 C 
ATOM      5  O   UNL     1      21.342 -23.141   0.155  1.00  0.00    -0.248 OA
ATOM      6  N   UNL     1      19.111 -23.464  -0.329  1.00  0.00    -0.254 N 
ATOM      7  C   UNL     1      18.020 -23.922   0.359  1.00  0.00    +0.261 C 
ATOM      8  O   UNL     1      16.901 -24.096  -0.109  1.00  0.00    -0.271 OA
ATOM      9  H   UNL     1      20.525 -23.942   2.470  1.00  0.00    +0.166 HD
ENDROOT
BRANCH   2  10
ATOM     10  C   UNL     1      17.687 -23.249   2.799  1.00  0.00    -0.013 A 
ATOM     11  C   UNL     1      16.829 -22.250   2.294  1.00  0.00    +0.008 A 
ATOM     12  C   UNL     1      17.823 -23.352   4.197  1.00  0.00    +0.008 A 
ATOM     13  C   UNL     1      16.131 -21.389   3.147  1.00  0.00    +0.022 A 
ATOM     14  C   UNL     1      17.128 -22.496   5.056  1.00  0.00    +0.022 A 
ATOM     15  C   UNL     1      16.279 -21.524   4.526  1.00  0.00    +0.082 A 
BRANCH  15  16
ATOM     16  S   UNL     1      15.414 -20.430   5.620  1.00  0.00    +0.238 S 
ATOM     17  O   UNL     1      14.050 -20.888   5.742  1.00  0.00    -0.207 OA
ATOM     18  O   UNL     1      16.254 -20.166   6.766  1.00  0.00    -0.207 OA
BRANCH  16  19
ATOM     19  N   UNL     1      15.403 -19.002   4.727  1.00  0.00    -0.225 NA
ATOM     20  H   UNL     1      15.473 -18.165   5.303  1.00  0.00    +0.137 HD
ATOM     21  H   UNL     1      14.570 -18.992   4.135  1.00  0.00    +0.137 HD
ENDBRANCH  16  19
ENDBRANCH  15  16
ENDBRANCH   2  10
BRANCH   6  22
ATOM     22  C   UNL     1      19.112 -23.058  -1.715  1.00  0.00    +0.213 C 
BRANCH  22  23
ATOM     23  C   UNL     1      18.819 -21.599  -2.043  1.00  0.00    +0.204 C 
ATOM     24  O   UNL     1      19.425 -21.029  -2.953  1.00  0.00    -0.290 OA
BRANCH  23  25
ATOM     25  C   UNL     1      17.788 -20.848  -1.291  1.00  0.00    +0.144 A 
ATOM     26  N   UNL     1      18.223 -19.993  -0.321  1.00  0.00    -0.247 NA
ATOM     27  C   UNL     1      16.446 -21.000  -1.633  1.00  0.00    +0.155 A 
ATOM     28  C   UNL     1      17.263 -19.268   0.305  1.00  0.00    +0.151 A 
ATOM     29  C   UNL     1      15.489 -20.253  -0.961  1.00  0.00    +0.082 A 
ATOM     30  C   UNL     1      15.910 -19.370   0.021  1.00  0.00    +0.144 A 
ATOM     31  F   UNL     1      16.048 -21.865  -2.577  1.00  0.00    -0.204 F 
ATOM     32  F   UNL     1      15.019 -18.627   0.688  1.00  0.00    -0.205 F 
ENDBRANCH  23  25
ENDBRANCH  22  23
ENDBRANCH   6  22
TORSDOF 6
ENDMDL
