MODEL 1
REMARK VINA RESULT:   -10.643      0.000      0.000
REMARK INTER + INTRA:         -15.084
REMARK INTER:                 -14.376
REMARK INTRA:                  -0.708
REMARK UNBOUND:                -0.708
REMARK SMILES NC(=O)CCc1cc(C(F)(F)F)cc2c(=O)nc(N3CCN(CC4CCCCC4)CC3)sc12
REMARK SMILES IDX 5 1 4 2 2 3 1 4 3 5 6 8 7 9 33 10 8 11 32 12 14 13 13 14
REMARK SMILES IDX 18 15 15 16 17 17 19 18 16 19 20 20 31 21 21 22 30 23 22 24
REMARK SMILES IDX 9 25 10 26 11 27 12 28 23 29 24 30 25 31 29 32 26 33 28 34
REMARK SMILES IDX 27 35
REMARK H PARENT 1 6 1 7
ROOT
ATOM      1  C   UNL     1      16.816 -21.048   4.808  1.00  0.00    +0.047 C 
ENDROOT
BRANCH   1   2
ATOM      2  C   UNL     1      16.251 -20.841   6.213  1.00  0.00    +0.104 C 
BRANCH   2   3
ATOM      3  C   UNL     1      15.239 -21.907   6.563  1.00  0.00    +0.217 C 
ATOM      4  N   UNL     1      15.696 -22.845   7.442  1.00  0.00    -0.370 N 
ATOM      5  O   UNL     1      14.104 -21.969   6.110  1.00  0.00    -0.275 OA
ATOM      6  H   UNL     1      15.037 -23.548   7.752  1.00  0.00    +0.159 HD
ATOM      7  H   UNL     1      16.562 -22.740   7.953  1.00  0.00    +0.159 HD
ENDBRANCH   2   3
ENDBRANCH   1   2
BRANCH   1   8
ATOM      8  C   UNL     1      16.193 -20.097   3.805  1.00  0.00    -0.029 A 
ATOM      9  C   UNL     1      15.204 -19.207   4.272  1.00  0.00    +0.018 A 
ATOM     10  C   UNL     1      16.538 -20.083   2.436  1.00  0.00    +0.047 A 
ATOM     11  C   UNL     1      14.576 -18.289   3.418  1.00  0.00    +0.057 A 
ATOM     12  S   UNL     1      17.816 -21.122   1.774  1.00  0.00    -0.098 SA
ATOM     13  C   UNL     1      15.895 -19.187   1.582  1.00  0.00    +0.060 A 
ATOM     14  C   UNL     1      14.929 -18.291   2.064  1.00  0.00    +0.028 A 
ATOM     15  C   UNL     1      17.314 -21.239   0.089  1.00  0.00    +0.189 C 
ATOM     16  C   UNL     1      16.241 -19.161   0.145  1.00  0.00    +0.281 C 
ATOM     17  N   UNL     1      16.612 -20.315  -0.485  1.00  0.00    -0.181 NA
ATOM     18  N   UNL     1      17.682 -22.393  -0.597  1.00  0.00    -0.345 N 
ATOM     19  O   UNL     1      16.105 -18.101  -0.458  1.00  0.00    -0.267 OA
ATOM     20  C   UNL     1      19.009 -23.023  -0.410  1.00  0.00    +0.134 C 
ATOM     21  C   UNL     1      17.276 -22.515  -2.018  1.00  0.00    +0.134 C 
ATOM     22  C   UNL     1      20.058 -22.311  -1.295  1.00  0.00    +0.106 C 
ATOM     23  C   UNL     1      18.307 -21.811  -2.934  1.00  0.00    +0.106 C 
ATOM     24  N   UNL     1      19.676 -22.316  -2.719  1.00  0.00    -0.300 NA
BRANCH  11  25
ATOM     25  C   UNL     1      13.511 -17.351   3.936  1.00  0.00    +0.416 C 
ATOM     26  F   UNL     1      12.823 -16.723   2.945  1.00  0.00    -0.166 F 
ATOM     27  F   UNL     1      14.012 -16.363   4.728  1.00  0.00    -0.166 F 
ATOM     28  F   UNL     1      12.582 -18.000   4.689  1.00  0.00    -0.166 F 
ENDBRANCH  11  25
BRANCH  24  29
ATOM     29  C   UNL     1      20.677 -21.747  -3.626  1.00  0.00    +0.088 C 
BRANCH  29  30
ATOM     30  C   UNL     1      20.438 -21.752  -5.159  1.00  0.00    +0.003 C 
ATOM     31  C   UNL     1      20.319 -23.159  -5.764  1.00  0.00    +0.005 C 
ATOM     32  C   UNL     1      21.586 -20.976  -5.841  1.00  0.00    +0.005 C 
ATOM     33  C   UNL     1      20.197 -23.128  -7.287  1.00  0.00    +0.000 C 
ATOM     34  C   UNL     1      21.442 -20.946  -7.359  1.00  0.00    +0.000 C 
ATOM     35  C   UNL     1      21.335 -22.351  -7.936  1.00  0.00    +0.000 C 
ENDBRANCH  29  30
ENDBRANCH  24  29
ENDBRANCH   1   8
TORSDOF 6
ENDMDL
MODEL 2
REMARK VINA RESULT:   -10.484      1.309      1.557
REMARK INTER + INTRA:         -14.869
REMARK INTER:                 -14.110
REMARK INTRA:                  -0.759
REMARK UNBOUND:                -0.708
REMARK SMILES NC(=O)CCc1cc(C(F)(F)F)cc2c(=O)nc(N3CCN(CC4CCCCC4)CC3)sc12
REMARK SMILES IDX 5 1 4 2 2 3 1 4 3 5 6 8 7 9 33 10 8 11 32 12 14 13 13 14
REMARK SMILES IDX 18 15 15 16 17 17 19 18 16 19 20 20 31 21 21 22 30 23 22 24
REMARK SMILES IDX 9 25 10 26 11 27 12 28 23 29 24 30 25 31 29 32 26 33 28 34
REMARK SMILES IDX 27 35
REMARK H PARENT 1 6 1 7
ROOT
ATOM      1  C   UNL     1      15.887 -21.761   4.805  1.00  0.00    +0.047 C 
ENDROOT
BRANCH   1   2
ATOM      2  C   UNL     1      17.205 -21.612   5.565  1.00  0.00    +0.104 C 
BRANCH   2   3
ATOM      3  C   UNL     1      18.200 -22.673   5.157  1.00  0.00    +0.217 C 
ATOM      4  N   UNL     1      19.482 -22.417   5.549  1.00  0.00    -0.370 N 
ATOM      5  O   UNL     1      17.926 -23.680   4.519  1.00  0.00    -0.275 OA
ATOM      6  H   UNL     1      20.177 -23.125   5.349  1.00  0.00    +0.159 HD
ATOM      7  H   UNL     1      19.717 -21.685   6.204  1.00  0.00    +0.159 HD
ENDBRANCH   2   3
ENDBRANCH   1   2
BRANCH   1   8
ATOM      8  C   UNL     1      15.562 -20.522   3.994  1.00  0.00    -0.029 A 
ATOM      9  C   UNL     1      14.734 -19.547   4.589  1.00  0.00    +0.018 A 
ATOM     10  C   UNL     1      16.026 -20.318   2.677  1.00  0.00    +0.047 A 
ATOM     11  C   UNL     1      14.383 -18.368   3.915  1.00  0.00    +0.057 A 
ATOM     12  S   UNL     1      17.124 -21.459   1.874  1.00  0.00    -0.098 SA
ATOM     13  C   UNL     1      15.656 -19.156   1.998  1.00  0.00    +0.060 A 
ATOM     14  C   UNL     1      14.850 -18.183   2.609  1.00  0.00    +0.028 A 
ATOM     15  C   UNL     1      16.764 -21.136   0.180  1.00  0.00    +0.189 C 
ATOM     16  C   UNL     1      16.130 -18.927   0.616  1.00  0.00    +0.281 C 
ATOM     17  N   UNL     1      16.317 -19.990  -0.222  1.00  0.00    -0.181 NA
ATOM     18  N   UNL     1      16.953 -22.187  -0.713  1.00  0.00    -0.345 N 
ATOM     19  O   UNL     1      16.265 -17.766   0.242  1.00  0.00    -0.267 OA
ATOM     20  C   UNL     1      18.103 -23.112  -0.598  1.00  0.00    +0.134 C 
ATOM     21  C   UNL     1      16.662 -21.940  -2.147  1.00  0.00    +0.134 C 
ATOM     22  C   UNL     1      19.351 -22.485  -1.264  1.00  0.00    +0.106 C 
ATOM     23  C   UNL     1      17.892 -21.312  -2.844  1.00  0.00    +0.106 C 
ATOM     24  N   UNL     1      19.107 -22.132  -2.674  1.00  0.00    -0.300 NA
BRANCH  11  25
ATOM     25  C   UNL     1      13.486 -17.342   4.565  1.00  0.00    +0.416 C 
ATOM     26  F   UNL     1      12.832 -17.819   5.660  1.00  0.00    -0.166 F 
ATOM     27  F   UNL     1      12.521 -16.871   3.729  1.00  0.00    -0.166 F 
ATOM     28  F   UNL     1      14.181 -16.250   4.987  1.00  0.00    -0.166 F 
ENDBRANCH  11  25
BRANCH  24  29
ATOM     29  C   UNL     1      20.281 -21.627  -3.392  1.00  0.00    +0.088 C 
BRANCH  29  30
ATOM     30  C   UNL     1      20.302 -21.611  -4.944  1.00  0.00    +0.003 C 
ATOM     31  C   UNL     1      20.146 -23.000  -5.582  1.00  0.00    +0.005 C 
ATOM     32  C   UNL     1      21.618 -20.955  -5.414  1.00  0.00    +0.005 C 
ATOM     33  C   UNL     1      20.284 -22.959  -7.103  1.00  0.00    +0.000 C 
ATOM     34  C   UNL     1      21.733 -20.913  -6.934  1.00  0.00    +0.000 C 
ATOM     35  C   UNL     1      21.586 -22.302  -7.542  1.00  0.00    +0.000 C 
ENDBRANCH  29  30
ENDBRANCH  24  29
ENDBRANCH   1   8
TORSDOF 6
ENDMDL
MODEL 3
REMARK VINA RESULT:    -9.352      1.332      1.889
REMARK INTER + INTRA:         -13.340
REMARK INTER:                 -12.566
REMARK INTRA:                  -0.775
REMARK UNBOUND:                -0.708
REMARK SMILES NC(=O)CCc1cc(C(F)(F)F)cc2c(=O)nc(N3CCN(CC4CCCCC4)CC3)sc12
REMARK SMILES IDX 5 1 4 2 2 3 1 4 3 5 6 8 7 9 33 10 8 11 32 12 14 13 13 14
REMARK SMILES IDX 18 15 15 16 17 17 19 18 16 19 20 20 31 21 21 22 30 23 22 24
REMARK SMILES IDX 9 25 10 26 11 27 12 28 23 29 24 30 25 31 29 32 26 33 28 34
REMARK SMILES IDX 27 35
REMARK H PARENT 1 6 1 7
ROOT
ATOM      1  C   UNL     1      16.788 -20.728   5.183  1.00  0.00    +0.047 C 
ENDROOT
BRANCH   1   2
ATOM      2  C   UNL     1      16.000 -20.719   6.493  1.00  0.00    +0.104 C 
BRANCH   2   3
ATOM      3  C   UNL     1      15.156 -21.964   6.637  1.00  0.00    +0.217 C 
ATOM      4  N   UNL     1      15.660 -22.883   7.511  1.00  0.00    -0.370 N 
ATOM      5  O   UNL     1      14.114 -22.176   6.031  1.00  0.00    -0.275 OA
ATOM      6  H   UNL     1      15.102 -23.709   7.685  1.00  0.00    +0.159 HD
ATOM      7  H   UNL     1      16.424 -22.678   8.139  1.00  0.00    +0.159 HD
ENDBRANCH   2   3
ENDBRANCH   1   2
BRANCH   1   8
ATOM      8  C   UNL     1      16.126 -19.869   4.122  1.00  0.00    -0.029 A 
ATOM      9  C   UNL     1      15.132 -18.961   4.541  1.00  0.00    +0.018 A 
ATOM     10  C   UNL     1      16.441 -19.959   2.750  1.00  0.00    +0.047 A 
ATOM     11  C   UNL     1      14.468 -18.125   3.631  1.00  0.00    +0.057 A 
ATOM     12  S   UNL     1      17.723 -21.026   2.141  1.00  0.00    -0.098 SA
ATOM     13  C   UNL     1      15.763 -19.145   1.842  1.00  0.00    +0.060 A 
ATOM     14  C   UNL     1      14.791 -18.228   2.274  1.00  0.00    +0.028 A 
ATOM     15  C   UNL     1      17.186 -21.286   0.484  1.00  0.00    +0.189 C 
ATOM     16  C   UNL     1      16.077 -19.228   0.399  1.00  0.00    +0.281 C 
ATOM     17  N   UNL     1      16.455 -20.422  -0.145  1.00  0.00    -0.181 NA
ATOM     18  N   UNL     1      17.560 -22.485  -0.117  1.00  0.00    -0.345 N 
ATOM     19  O   UNL     1      15.908 -18.221  -0.282  1.00  0.00    -0.267 OA
ATOM     20  C   UNL     1      18.901 -23.076   0.088  1.00  0.00    +0.134 C 
ATOM     21  C   UNL     1      17.125 -22.725  -1.515  1.00  0.00    +0.134 C 
ATOM     22  C   UNL     1      19.918 -22.420  -0.875  1.00  0.00    +0.106 C 
ATOM     23  C   UNL     1      18.122 -22.080  -2.507  1.00  0.00    +0.106 C 
ATOM     24  N   UNL     1      19.505 -22.544  -2.284  1.00  0.00    -0.300 NA
BRANCH  11  25
ATOM     25  C   UNL     1      13.399 -17.166   4.098  1.00  0.00    +0.416 C 
ATOM     26  F   UNL     1      12.395 -17.777   4.784  1.00  0.00    -0.166 F 
ATOM     27  F   UNL     1      12.799 -16.498   3.075  1.00  0.00    -0.166 F 
ATOM     28  F   UNL     1      13.897 -16.210   4.929  1.00  0.00    -0.166 F 
ENDBRANCH  11  25
BRANCH  24  29
ATOM     29  C   UNL     1      20.476 -22.033  -3.256  1.00  0.00    +0.088 C 
BRANCH  29  30
ATOM     30  C   UNL     1      21.878 -22.684  -3.379  1.00  0.00    +0.003 C 
ATOM     31  C   UNL     1      23.023 -21.670  -3.530  1.00  0.00    +0.005 C 
ATOM     32  C   UNL     1      21.869 -23.657  -4.578  1.00  0.00    +0.005 C 
ATOM     33  C   UNL     1      24.373 -22.348  -3.760  1.00  0.00    +0.000 C 
ATOM     34  C   UNL     1      23.220 -24.333  -4.786  1.00  0.00    +0.000 C 
ATOM     35  C   UNL     1      24.336 -23.308  -4.942  1.00  0.00    +0.000 C 
ENDBRANCH  29  30
ENDBRANCH  24  29
ENDBRANCH   1   8
TORSDOF 6
ENDMDL
MODEL 4
REMARK VINA RESULT:    -8.671      3.605      6.223
REMARK INTER + INTRA:         -12.420
REMARK INTER:                 -12.212
REMARK INTRA:                  -0.208
REMARK UNBOUND:                -0.708
REMARK SMILES NC(=O)CCc1cc(C(F)(F)F)cc2c(=O)nc(N3CCN(CC4CCCCC4)CC3)sc12
REMARK SMILES IDX 5 1 4 2 2 3 1 4 3 5 6 8 7 9 33 10 8 11 32 12 14 13 13 14
REMARK SMILES IDX 18 15 15 16 17 17 19 18 16 19 20 20 31 21 21 22 30 23 22 24
REMARK SMILES IDX 9 25 10 26 11 27 12 28 23 29 24 30 25 31 29 32 26 33 28 34
REMARK SMILES IDX 27 35
REMARK H PARENT 1 6 1 7
ROOT
ATOM      1  C   UNL     1      16.363 -18.413   0.648  1.00  0.00    +0.047 C 
ENDROOT
BRANCH   1   2
ATOM      2  C   UNL     1      16.083 -19.307  -0.560  1.00  0.00    +0.104 C 
BRANCH   2   3
ATOM      3  C   UNL     1      17.149 -19.151  -1.620  1.00  0.00    +0.217 C 
ATOM      4  N   UNL     1      17.230 -20.201  -2.488  1.00  0.00    -0.370 N 
ATOM      5  O   UNL     1      17.902 -18.193  -1.718  1.00  0.00    -0.275 OA
ATOM      6  H   UNL     1      17.890 -20.120  -3.251  1.00  0.00    +0.159 HD
ATOM      7  H   UNL     1      16.530 -20.928  -2.534  1.00  0.00    +0.159 HD
ENDBRANCH   2   3
ENDBRANCH   1   2
BRANCH   1   8
ATOM      8  C   UNL     1      16.115 -19.140   1.956  1.00  0.00    -0.029 A 
ATOM      9  C   UNL     1      15.191 -18.570   2.857  1.00  0.00    +0.018 A 
ATOM     10  C   UNL     1      16.779 -20.332   2.315  1.00  0.00    +0.047 A 
ATOM     11  C   UNL     1      14.896 -19.174   4.088  1.00  0.00    +0.057 A 
ATOM     12  S   UNL     1      17.906 -21.153   1.216  1.00  0.00    -0.098 SA
ATOM     13  C   UNL     1      16.503 -20.919   3.550  1.00  0.00    +0.060 A 
ATOM     14  C   UNL     1      15.565 -20.355   4.428  1.00  0.00    +0.028 A 
ATOM     15  C   UNL     1      18.911 -22.034   2.363  1.00  0.00    +0.189 C 
ATOM     16  C   UNL     1      17.192 -22.167   3.944  1.00  0.00    +0.281 C 
ATOM     17  N   UNL     1      18.472 -22.396   3.526  1.00  0.00    -0.181 NA
ATOM     18  N   UNL     1      20.221 -22.303   1.974  1.00  0.00    -0.345 N 
ATOM     19  O   UNL     1      16.606 -22.927   4.709  1.00  0.00    -0.267 OA
ATOM     20  C   UNL     1      20.559 -22.694   0.587  1.00  0.00    +0.134 C 
ATOM     21  C   UNL     1      21.087 -23.048   2.920  1.00  0.00    +0.134 C 
ATOM     22  C   UNL     1      20.323 -24.211   0.397  1.00  0.00    +0.106 C 
ATOM     23  C   UNL     1      20.875 -24.573   2.756  1.00  0.00    +0.106 C 
ATOM     24  N   UNL     1      21.088 -25.016   1.365  1.00  0.00    -0.300 NA
BRANCH  11  25
ATOM     25  C   UNL     1      13.912 -18.543   5.044  1.00  0.00    +0.416 C 
ATOM     26  F   UNL     1      14.512 -17.839   6.043  1.00  0.00    -0.166 F 
ATOM     27  F   UNL     1      13.108 -19.453   5.659  1.00  0.00    -0.166 F 
ATOM     28  F   UNL     1      13.078 -17.670   4.416  1.00  0.00    -0.166 F 
ENDBRANCH  11  25
BRANCH  24  29
ATOM     29  C   UNL     1      20.989 -26.466   1.173  1.00  0.00    +0.088 C 
BRANCH  29  30
ATOM     30  C   UNL     1      19.701 -27.090   0.575  1.00  0.00    +0.003 C 
ATOM     31  C   UNL     1      18.448 -26.875   1.439  1.00  0.00    +0.005 C 
ATOM     32  C   UNL     1      19.940 -28.599   0.353  1.00  0.00    +0.005 C 
ATOM     33  C   UNL     1      17.225 -27.598   0.877  1.00  0.00    +0.000 C 
ATOM     34  C   UNL     1      18.712 -29.302  -0.219  1.00  0.00    +0.000 C 
ATOM     35  C   UNL     1      17.487 -29.082   0.659  1.00  0.00    +0.000 C 
ENDBRANCH  29  30
ENDBRANCH  24  29
ENDBRANCH   1   8
TORSDOF 6
ENDMDL
MODEL 5
REMARK VINA RESULT:    -8.663      2.410      3.116
REMARK INTER + INTRA:         -12.409
REMARK INTER:                 -11.540
REMARK INTRA:                  -0.869
REMARK UNBOUND:                -0.708
REMARK SMILES NC(=O)CCc1cc(C(F)(F)F)cc2c(=O)nc(N3CCN(CC4CCCCC4)CC3)sc12
REMARK SMILES IDX 5 1 4 2 2 3 1 4 3 5 6 8 7 9 33 10 8 11 32 12 14 13 13 14
REMARK SMILES IDX 18 15 15 16 17 17 19 18 16 19 20 20 31 21 21 22 30 23 22 24
REMARK SMILES IDX 9 25 10 26 11 27 12 28 23 29 24 30 25 31 29 32 26 33 28 34
REMARK SMILES IDX 27 35
REMARK H PARENT 1 6 1 7
ROOT
ATOM      1  C   UNL     1      18.831 -22.957   3.655  1.00  0.00    +0.047 C 
ENDROOT
BRANCH   1   2
ATOM      2  C   UNL     1      18.010 -24.245   3.720  1.00  0.00    +0.104 C 
BRANCH   2   3
ATOM      3  C   UNL     1      18.119 -25.035   2.437  1.00  0.00    +0.217 C 
ATOM      4  N   UNL     1      16.978 -25.048   1.689  1.00  0.00    -0.370 N 
ATOM      5  O   UNL     1      19.119 -25.637   2.070  1.00  0.00    -0.275 OA
ATOM      6  H   UNL     1      17.018 -25.516   0.793  1.00  0.00    +0.159 HD
ATOM      7  H   UNL     1      16.193 -24.441   1.879  1.00  0.00    +0.159 HD
ENDBRANCH   2   3
ENDBRANCH   1   2
BRANCH   1   8
ATOM      8  C   UNL     1      18.070 -21.839   2.967  1.00  0.00    -0.029 A 
ATOM      9  C   UNL     1      17.048 -21.197   3.696  1.00  0.00    +0.018 A 
ATOM     10  C   UNL     1      18.323 -21.437   1.638  1.00  0.00    +0.047 A 
ATOM     11  C   UNL     1      16.295 -20.151   3.142  1.00  0.00    +0.057 A 
ATOM     12  S   UNL     1      19.633 -22.144   0.670  1.00  0.00    -0.098 SA
ATOM     13  C   UNL     1      17.557 -20.413   1.080  1.00  0.00    +0.060 A 
ATOM     14  C   UNL     1      16.557 -19.767   1.823  1.00  0.00    +0.028 A 
ATOM     15  C   UNL     1      19.033 -21.864  -0.962  1.00  0.00    +0.189 C 
ATOM     16  C   UNL     1      17.806 -19.981  -0.312  1.00  0.00    +0.281 C 
ATOM     17  N   UNL     1      18.224 -20.892  -1.241  1.00  0.00    -0.181 NA
ATOM     18  N   UNL     1      19.444 -22.760  -1.945  1.00  0.00    -0.345 N 
ATOM     19  O   UNL     1      17.548 -18.818  -0.606  1.00  0.00    -0.267 OA
ATOM     20  C   UNL     1      20.825 -23.291  -1.989  1.00  0.00    +0.134 C 
ATOM     21  C   UNL     1      18.957 -22.544  -3.329  1.00  0.00    +0.134 C 
ATOM     22  C   UNL     1      21.756 -22.278  -2.697  1.00  0.00    +0.106 C 
ATOM     23  C   UNL     1      19.867 -21.533  -4.068  1.00  0.00    +0.106 C 
ATOM     24  N   UNL     1      21.283 -21.947  -4.053  1.00  0.00    -0.300 NA
BRANCH  11  25
ATOM     25  C   UNL     1      15.196 -19.484   3.936  1.00  0.00    +0.416 C 
ATOM     26  F   UNL     1      14.216 -20.345   4.323  1.00  0.00    -0.166 F 
ATOM     27  F   UNL     1      14.570 -18.491   3.247  1.00  0.00    -0.166 F 
ATOM     28  F   UNL     1      15.667 -18.910   5.077  1.00  0.00    -0.166 F 
ENDBRANCH  11  25
BRANCH  24  29
ATOM     29  C   UNL     1      22.175 -21.071  -4.818  1.00  0.00    +0.088 C 
BRANCH  29  30
ATOM     30  C   UNL     1      22.268 -21.202  -6.361  1.00  0.00    +0.003 C 
ATOM     31  C   UNL     1      21.618 -22.478  -6.916  1.00  0.00    +0.005 C 
ATOM     32  C   UNL     1      23.754 -21.139  -6.775  1.00  0.00    +0.005 C 
ATOM     33  C   UNL     1      21.826 -22.628  -8.423  1.00  0.00    +0.000 C 
ATOM     34  C   UNL     1      23.942 -21.279  -8.282  1.00  0.00    +0.000 C 
ATOM     35  C   UNL     1      23.298 -22.556  -8.807  1.00  0.00    +0.000 C 
ENDBRANCH  29  30
ENDBRANCH  24  29
ENDBRANCH   1   8
TORSDOF 6
ENDMDL
MODEL 6
REMARK VINA RESULT:    -8.381      2.866      4.095
REMARK INTER + INTRA:         -12.028
REMARK INTER:                 -11.314
REMARK INTRA:                  -0.714
REMARK UNBOUND:                -0.708
REMARK SMILES NC(=O)CCc1cc(C(F)(F)F)cc2c(=O)nc(N3CCN(CC4CCCCC4)CC3)sc12
REMARK SMILES IDX 5 1 4 2 2 3 1 4 3 5 6 8 7 9 33 10 8 11 32 12 14 13 13 14
REMARK SMILES IDX 18 15 15 16 17 17 19 18 16 19 20 20 31 21 21 22 30 23 22 24
REMARK SMILES IDX 9 25 10 26 11 27 12 28 23 29 24 30 25 31 29 32 26 33 28 34
REMARK SMILES IDX 27 35
REMARK H PARENT 1 6 1 7
ROOT
ATOM      1  C   UNL     1      15.124 -18.819   2.577  1.00  0.00    +0.047 C 
ENDROOT
BRANCH   1   2
ATOM      2  C   UNL     1      14.302 -18.100   3.646  1.00  0.00    +0.104 C 
BRANCH   2   3
ATOM      3  C   UNL     1      13.529 -16.941   3.060  1.00  0.00    +0.217 C 
ATOM      4  N   UNL     1      14.249 -16.168   2.197  1.00  0.00    -0.370 N 
ATOM      5  O   UNL     1      12.364 -16.675   3.322  1.00  0.00    -0.275 OA
ATOM      6  H   UNL     1      13.760 -15.412   1.735  1.00  0.00    +0.159 HD
ATOM      7  H   UNL     1      15.153 -16.444   1.840  1.00  0.00    +0.159 HD
ENDBRANCH   2   3
ENDBRANCH   1   2
BRANCH   1   8
ATOM      8  C   UNL     1      15.739 -20.101   3.107  1.00  0.00    -0.029 A 
ATOM      9  C   UNL     1      15.471 -20.451   4.447  1.00  0.00    +0.018 A 
ATOM     10  C   UNL     1      16.577 -20.932   2.334  1.00  0.00    +0.047 A 
ATOM     11  C   UNL     1      15.994 -21.619   5.021  1.00  0.00    +0.057 A 
ATOM     12  S   UNL     1      16.916 -20.604   0.622  1.00  0.00    -0.098 SA
ATOM     13  C   UNL     1      17.117 -22.080   2.914  1.00  0.00    +0.060 A 
ATOM     14  C   UNL     1      16.824 -22.430   4.241  1.00  0.00    +0.028 A 
ATOM     15  C   UNL     1      18.465 -21.419   0.424  1.00  0.00    +0.189 C 
ATOM     16  C   UNL     1      18.001 -22.961   2.120  1.00  0.00    +0.281 C 
ATOM     17  N   UNL     1      18.813 -22.423   1.162  1.00  0.00    -0.181 NA
ATOM     18  N   UNL     1      19.320 -20.912  -0.551  1.00  0.00    -0.345 N 
ATOM     19  O   UNL     1      18.030 -24.154   2.409  1.00  0.00    -0.267 OA
ATOM     20  C   UNL     1      18.818 -20.435  -1.859  1.00  0.00    +0.134 C 
ATOM     21  C   UNL     1      20.629 -21.584  -0.742  1.00  0.00    +0.134 C 
ATOM     22  C   UNL     1      18.633 -21.634  -2.819  1.00  0.00    +0.106 C 
ATOM     23  C   UNL     1      20.480 -22.790  -1.700  1.00  0.00    +0.106 C 
ATOM     24  N   UNL     1      19.879 -22.403  -2.990  1.00  0.00    -0.300 NA
BRANCH  11  25
ATOM     25  C   UNL     1      15.703 -21.970   6.461  1.00  0.00    +0.416 C 
ATOM     26  F   UNL     1      14.376 -21.951   6.760  1.00  0.00    -0.166 F 
ATOM     27  F   UNL     1      16.298 -21.124   7.346  1.00  0.00    -0.166 F 
ATOM     28  F   UNL     1      16.145 -23.218   6.781  1.00  0.00    -0.166 F 
ENDBRANCH  11  25
BRANCH  24  29
ATOM     29  C   UNL     1      19.799 -23.492  -3.968  1.00  0.00    +0.088 C 
BRANCH  29  30
ATOM     30  C   UNL     1      20.768 -23.530  -5.179  1.00  0.00    +0.003 C 
ATOM     31  C   UNL     1      22.048 -22.705  -4.976  1.00  0.00    +0.005 C 
ATOM     32  C   UNL     1      20.013 -23.039  -6.433  1.00  0.00    +0.005 C 
ATOM     33  C   UNL     1      22.924 -22.675  -6.227  1.00  0.00    +0.000 C 
ATOM     34  C   UNL     1      20.899 -23.026  -7.674  1.00  0.00    +0.000 C 
ATOM     35  C   UNL     1      22.156 -22.194  -7.451  1.00  0.00    +0.000 C 
ENDBRANCH  29  30
ENDBRANCH  24  29
ENDBRANCH   1   8
TORSDOF 6
ENDMDL
MODEL 7
REMARK VINA RESULT:    -8.369      5.073     10.283
REMARK INTER + INTRA:         -12.012
REMARK INTER:                 -11.061
REMARK INTRA:                  -0.951
REMARK UNBOUND:                -0.708
REMARK SMILES NC(=O)CCc1cc(C(F)(F)F)cc2c(=O)nc(N3CCN(CC4CCCCC4)CC3)sc12
REMARK SMILES IDX 5 1 4 2 2 3 1 4 3 5 6 8 7 9 33 10 8 11 32 12 14 13 13 14
REMARK SMILES IDX 18 15 15 16 17 17 19 18 16 19 20 20 31 21 21 22 30 23 22 24
REMARK SMILES IDX 9 25 10 26 11 27 12 28 23 29 24 30 25 31 29 32 26 33 28 34
REMARK SMILES IDX 27 35
REMARK H PARENT 1 6 1 7
ROOT
ATOM      1  C   UNL     1      22.333 -24.560  -3.685  1.00  0.00    +0.047 C 
ENDROOT
BRANCH   1   2
ATOM      2  C   UNL     1      23.810 -24.167  -3.702  1.00  0.00    +0.104 C 
BRANCH   2   3
ATOM      3  C   UNL     1      24.105 -23.086  -2.689  1.00  0.00    +0.217 C 
ATOM      4  N   UNL     1      24.639 -21.950  -3.224  1.00  0.00    -0.370 N 
ATOM      5  O   UNL     1      23.912 -23.185  -1.485  1.00  0.00    -0.275 OA
ATOM      6  H   UNL     1      24.802 -21.175  -2.594  1.00  0.00    +0.159 HD
ATOM      7  H   UNL     1      24.666 -21.774  -4.218  1.00  0.00    +0.159 HD
ENDBRANCH   2   3
ENDBRANCH   1   2
BRANCH   1   8
ATOM      8  C   UNL     1      21.436 -23.390  -4.045  1.00  0.00    -0.029 A 
ATOM      9  C   UNL     1      21.571 -22.832  -5.333  1.00  0.00    +0.018 A 
ATOM     10  C   UNL     1      20.503 -22.828  -3.146  1.00  0.00    +0.047 A 
ATOM     11  C   UNL     1      20.781 -21.752  -5.753  1.00  0.00    +0.057 A 
ATOM     12  S   UNL     1      20.221 -23.506  -1.530  1.00  0.00    -0.098 SA
ATOM     13  C   UNL     1      19.736 -21.738  -3.557  1.00  0.00    +0.060 A 
ATOM     14  C   UNL     1      19.863 -21.206  -4.850  1.00  0.00    +0.028 A 
ATOM     15  C   UNL     1      19.614 -22.092  -0.674  1.00  0.00    +0.189 C 
ATOM     16  C   UNL     1      18.756 -21.134  -2.628  1.00  0.00    +0.281 C 
ATOM     17  N   UNL     1      19.011 -21.123  -1.287  1.00  0.00    -0.181 NA
ATOM     18  N   UNL     1      19.838 -22.044   0.699  1.00  0.00    -0.345 N 
ATOM     19  O   UNL     1      17.771 -20.586  -3.113  1.00  0.00    -0.267 OA
ATOM     20  C   UNL     1      19.725 -23.249   1.551  1.00  0.00    +0.134 C 
ATOM     21  C   UNL     1      19.332 -20.866   1.444  1.00  0.00    +0.134 C 
ATOM     22  C   UNL     1      18.244 -23.490   1.927  1.00  0.00    +0.106 C 
ATOM     23  C   UNL     1      17.850 -21.074   1.837  1.00  0.00    +0.106 C 
ATOM     24  N   UNL     1      17.646 -22.322   2.597  1.00  0.00    -0.300 NA
BRANCH  11  25
ATOM     25  C   UNL     1      20.948 -21.162  -7.134  1.00  0.00    +0.416 C 
ATOM     26  F   UNL     1      22.021 -20.330  -7.235  1.00  0.00    -0.166 F 
ATOM     27  F   UNL     1      19.871 -20.433  -7.535  1.00  0.00    -0.166 F 
ATOM     28  F   UNL     1      21.125 -22.122  -8.082  1.00  0.00    -0.166 F 
ENDBRANCH  11  25
BRANCH  24  29
ATOM     29  C   UNL     1      16.274 -22.521   3.072  1.00  0.00    +0.088 C 
BRANCH  29  30
ATOM     30  C   UNL     1      15.760 -21.762   4.324  1.00  0.00    +0.003 C 
ATOM     31  C   UNL     1      15.171 -20.378   4.013  1.00  0.00    +0.005 C 
ATOM     32  C   UNL     1      16.920 -21.631   5.333  1.00  0.00    +0.005 C 
ATOM     33  C   UNL     1      14.780 -19.616   5.278  1.00  0.00    +0.000 C 
ATOM     34  C   UNL     1      16.509 -20.878   6.594  1.00  0.00    +0.000 C 
ATOM     35  C   UNL     1      15.937 -19.506   6.261  1.00  0.00    +0.000 C 
ENDBRANCH  29  30
ENDBRANCH  24  29
ENDBRANCH   1   8
TORSDOF 6
ENDMDL
MODEL 8
REMARK VINA RESULT:    -8.211      5.887     11.280
REMARK INTER + INTRA:         -11.799
REMARK INTER:                 -11.071
REMARK INTRA:                  -0.728
REMARK UNBOUND:                -0.708
REMARK SMILES NC(=O)CCc1cc(C(F)(F)F)cc2c(=O)nc(N3CCN(CC4CCCCC4)CC3)sc12
REMARK SMILES IDX 5 1 4 2 2 3 1 4 3 5 6 8 7 9 33 10 8 11 32 12 14 13 13 14
REMARK SMILES IDX 18 15 15 16 17 17 19 18 16 19 20 20 31 21 21 22 30 23 22 24
REMARK SMILES IDX 9 25 10 26 11 27 12 28 23 29 24 30 25 31 29 32 26 33 28 34
REMARK SMILES IDX 27 35
REMARK H PARENT 1 6 1 7
ROOT
ATOM      1  C   UNL     1      20.287 -21.187  -5.754  1.00  0.00    +0.047 C 
ENDROOT
BRANCH   1   2
ATOM      2  C   UNL     1      20.584 -21.487  -7.223  1.00  0.00    +0.104 C 
BRANCH   2   3
ATOM      3  C   UNL     1      20.638 -20.220  -8.045  1.00  0.00    +0.217 C 
ATOM      4  N   UNL     1      19.414 -19.716  -8.375  1.00  0.00    -0.370 N 
ATOM      5  O   UNL     1      21.666 -19.670  -8.415  1.00  0.00    -0.275 OA
ATOM      6  H   UNL     1      19.396 -18.837  -8.877  1.00  0.00    +0.159 HD
ATOM      7  H   UNL     1      18.555 -20.049  -7.960  1.00  0.00    +0.159 HD
ENDBRANCH   2   3
ENDBRANCH   1   2
BRANCH   1   8
ATOM      8  C   UNL     1      21.407 -21.660  -4.846  1.00  0.00    -0.029 A 
ATOM      9  C   UNL     1      22.686 -21.828  -5.416  1.00  0.00    +0.018 A 
ATOM     10  C   UNL     1      21.218 -21.958  -3.480  1.00  0.00    +0.047 A 
ATOM     11  C   UNL     1      23.781 -22.258  -4.652  1.00  0.00    +0.057 A 
ATOM     12  S   UNL     1      19.660 -21.714  -2.665  1.00  0.00    -0.098 SA
ATOM     13  C   UNL     1      22.302 -22.409  -2.727  1.00  0.00    +0.060 A 
ATOM     14  C   UNL     1      23.576 -22.551  -3.300  1.00  0.00    +0.028 A 
ATOM     15  C   UNL     1      19.788 -22.868  -1.341  1.00  0.00    +0.189 C 
ATOM     16  C   UNL     1      22.123 -22.730  -1.294  1.00  0.00    +0.281 C 
ATOM     17  N   UNL     1      20.931 -23.235  -0.856  1.00  0.00    -0.181 NA
ATOM     18  N   UNL     1      18.597 -23.399  -0.852  1.00  0.00    -0.345 N 
ATOM     19  O   UNL     1      23.092 -22.604  -0.553  1.00  0.00    -0.267 OA
ATOM     20  C   UNL     1      17.379 -22.571  -0.698  1.00  0.00    +0.134 C 
ATOM     21  C   UNL     1      18.677 -24.370   0.266  1.00  0.00    +0.134 C 
ATOM     22  C   UNL     1      17.438 -21.795   0.639  1.00  0.00    +0.106 C 
ATOM     23  C   UNL     1      18.737 -23.625   1.621  1.00  0.00    +0.106 C 
ATOM     24  N   UNL     1      17.605 -22.694   1.794  1.00  0.00    -0.300 NA
BRANCH  11  25
ATOM     25  C   UNL     1      25.140 -22.442  -5.283  1.00  0.00    +0.416 C 
ATOM     26  F   UNL     1      25.335 -21.655  -6.376  1.00  0.00    -0.166 F 
ATOM     27  F   UNL     1      25.366 -23.719  -5.698  1.00  0.00    -0.166 F 
ATOM     28  F   UNL     1      26.149 -22.146  -4.419  1.00  0.00    -0.166 F 
ENDBRANCH  11  25
BRANCH  24  29
ATOM     29  C   UNL     1      17.565 -22.031   3.101  1.00  0.00    +0.088 C 
BRANCH  29  30
ATOM     30  C   UNL     1      16.208 -21.597   3.717  1.00  0.00    +0.003 C 
ATOM     31  C   UNL     1      15.966 -20.080   3.681  1.00  0.00    +0.005 C 
ATOM     32  C   UNL     1      16.140 -22.111   5.171  1.00  0.00    +0.005 C 
ATOM     33  C   UNL     1      14.676 -19.681   4.395  1.00  0.00    +0.000 C 
ATOM     34  C   UNL     1      14.841 -21.714   5.865  1.00  0.00    +0.000 C 
ATOM     35  C   UNL     1      14.628 -20.206   5.824  1.00  0.00    +0.000 C 
ENDBRANCH  29  30
ENDBRANCH  24  29
ENDBRANCH   1   8
TORSDOF 6
ENDMDL
MODEL 9
REMARK VINA RESULT:    -8.151      4.272      6.668
REMARK INTER + INTRA:         -11.718
REMARK INTER:                 -10.917
REMARK INTRA:                  -0.801
REMARK UNBOUND:                -0.708
REMARK SMILES NC(=O)CCc1cc(C(F)(F)F)cc2c(=O)nc(N3CCN(CC4CCCCC4)CC3)sc12
REMARK SMILES IDX 5 1 4 2 2 3 1 4 3 5 6 8 7 9 33 10 8 11 32 12 14 13 13 14
REMARK SMILES IDX 18 15 15 16 17 17 19 18 16 19 20 20 31 21 21 22 30 23 22 24
REMARK SMILES IDX 9 25 10 26 11 27 12 28 23 29 24 30 25 31 29 32 26 33 28 34
REMARK SMILES IDX 27 35
REMARK H PARENT 1 6 1 7
ROOT
ATOM      1  C   UNL     1      17.010 -19.138   0.193  1.00  0.00    +0.047 C 
ENDROOT
BRANCH   1   2
ATOM      2  C   UNL     1      16.122 -19.776  -0.875  1.00  0.00    +0.104 C 
BRANCH   2   3
ATOM      3  C   UNL     1      16.942 -20.322  -2.021  1.00  0.00    +0.217 C 
ATOM      4  N   UNL     1      16.263 -21.180  -2.835  1.00  0.00    -0.370 N 
ATOM      5  O   UNL     1      18.118 -20.055  -2.227  1.00  0.00    -0.275 OA
ATOM      6  H   UNL     1      16.752 -21.528  -3.650  1.00  0.00    +0.159 HD
ATOM      7  H   UNL     1      15.261 -21.299  -2.789  1.00  0.00    +0.159 HD
ENDBRANCH   2   3
ENDBRANCH   1   2
BRANCH   1   8
ATOM      8  C   UNL     1      16.766 -19.743   1.563  1.00  0.00    -0.029 A 
ATOM      9  C   UNL     1      15.820 -19.112   2.398  1.00  0.00    +0.018 A 
ATOM     10  C   UNL     1      17.454 -20.879   2.039  1.00  0.00    +0.047 A 
ATOM     11  C   UNL     1      15.527 -19.603   3.679  1.00  0.00    +0.057 A 
ATOM     12  S   UNL     1      18.611 -21.774   1.033  1.00  0.00    -0.098 SA
ATOM     13  C   UNL     1      17.179 -21.352   3.322  1.00  0.00    +0.060 A 
ATOM     14  C   UNL     1      16.220 -20.729   4.136  1.00  0.00    +0.028 A 
ATOM     15  C   UNL     1      19.625 -22.516   2.267  1.00  0.00    +0.189 C 
ATOM     16  C   UNL     1      17.893 -22.539   3.839  1.00  0.00    +0.281 C 
ATOM     17  N   UNL     1      19.183 -22.776   3.456  1.00  0.00    -0.181 NA
ATOM     18  N   UNL     1      20.945 -22.789   1.915  1.00  0.00    -0.345 N 
ATOM     19  O   UNL     1      17.318 -23.237   4.669  1.00  0.00    -0.267 OA
ATOM     20  C   UNL     1      21.306 -23.302   0.575  1.00  0.00    +0.134 C 
ATOM     21  C   UNL     1      21.818 -23.419   2.935  1.00  0.00    +0.134 C 
ATOM     22  C   UNL     1      21.107 -24.835   0.528  1.00  0.00    +0.106 C 
ATOM     23  C   UNL     1      21.644 -24.957   2.915  1.00  0.00    +0.106 C 
ATOM     24  N   UNL     1      21.881 -25.526   1.575  1.00  0.00    -0.300 NA
BRANCH  11  25
ATOM     25  C   UNL     1      14.519 -18.907   4.563  1.00  0.00    +0.416 C 
ATOM     26  F   UNL     1      15.082 -18.301   5.643  1.00  0.00    -0.166 F 
ATOM     27  F   UNL     1      13.573 -19.751   5.058  1.00  0.00    -0.166 F 
ATOM     28  F   UNL     1      13.840 -17.934   3.895  1.00  0.00    -0.166 F 
ENDBRANCH  11  25
BRANCH  24  29
ATOM     29  C   UNL     1      21.818 -26.989   1.522  1.00  0.00    +0.088 C 
BRANCH  29  30
ATOM     30  C   UNL     1      23.078 -27.815   1.149  1.00  0.00    +0.003 C 
ATOM     31  C   UNL     1      23.031 -28.417  -0.263  1.00  0.00    +0.005 C 
ATOM     32  C   UNL     1      23.265 -28.932   2.197  1.00  0.00    +0.005 C 
ATOM     33  C   UNL     1      24.234 -29.313  -0.553  1.00  0.00    +0.000 C 
ATOM     34  C   UNL     1      24.477 -29.809   1.899  1.00  0.00    +0.000 C 
ATOM     35  C   UNL     1      24.402 -30.402   0.497  1.00  0.00    +0.000 C 
ENDBRANCH  29  30
ENDBRANCH  24  29
ENDBRANCH   1   8
TORSDOF 6
ENDMDL
