MODEL 1
REMARK VINA RESULT:    -9.321      0.000      0.000
REMARK INTER + INTRA:         -13.414
REMARK INTER:                 -12.317
REMARK INTRA:                  -1.096
REMARK UNBOUND:                -1.096
REMARK SMILES CC1(c2ccc(S(N)(=O)=O)cc2)NC(=O)N(CC(=O)c2ccc(Cl)cc2Cl)C1=O
REMARK SMILES IDX 1 1 2 2 13 3 14 4 15 5 16 6 28 7 29 8 3 10 4 11 12 12 5 13
REMARK SMILES IDX 11 14 6 15 7 16 9 17 10 18 8 19 17 22 18 23 19 24 20 25
REMARK SMILES IDX 21 26 26 27 22 28 25 29 23 30 27 31 24 32
REMARK H PARENT 13 9 8 20 8 21
ROOT
ATOM      1  C   UNL     1      18.405 -22.363  -2.542  1.00  0.00    +0.051 C 
ATOM      2  C   UNL     1      18.478 -21.420  -1.343  1.00  0.00    +0.144 C 
ATOM      3  N   UNL     1      18.779 -20.074  -1.784  1.00  0.00    -0.319 N 
ATOM      4  C   UNL     1      17.801 -19.169  -1.458  1.00  0.00    +0.325 C 
ATOM      5  O   UNL     1      17.855 -17.987  -1.744  1.00  0.00    -0.248 OA
ATOM      6  N   UNL     1      16.802 -19.821  -0.810  1.00  0.00    -0.254 N 
ATOM      7  C   UNL     1      17.060 -21.163  -0.773  1.00  0.00    +0.261 C 
ATOM      8  O   UNL     1      16.297 -22.015  -0.333  1.00  0.00    -0.271 OA
ATOM      9  H   UNL     1      19.601 -19.788  -2.298  1.00  0.00    +0.166 HD
ENDROOT
BRANCH   2  10
ATOM     10  C   UNL     1      19.432 -21.917  -0.255  1.00  0.00    -0.013 A 
ATOM     11  C   UNL     1      20.446 -22.840  -0.581  1.00  0.00    +0.008 A 
ATOM     12  C   UNL     1      19.332 -21.494   1.084  1.00  0.00    +0.008 A 
ATOM     13  C   UNL     1      21.323 -23.327   0.391  1.00  0.00    +0.022 A 
ATOM     14  C   UNL     1      20.209 -21.973   2.062  1.00  0.00    +0.022 A 
ATOM     15  C   UNL     1      21.204 -22.882   1.708  1.00  0.00    +0.082 A 
BRANCH  15  16
ATOM     16  S   UNL     1      22.312 -23.521   2.936  1.00  0.00    +0.238 S 
ATOM     17  O   UNL     1      23.470 -22.662   2.990  1.00  0.00    -0.207 OA
ATOM     18  O   UNL     1      22.403 -24.954   2.777  1.00  0.00    -0.207 OA
BRANCH  16  19
ATOM     19  N   UNL     1      21.422 -23.289   4.347  1.00  0.00    -0.225 NA
ATOM     20  H   UNL     1      21.912 -22.612   4.934  1.00  0.00    +0.137 HD
ATOM     21  H   UNL     1      21.223 -24.153   4.849  1.00  0.00    +0.137 HD
ENDBRANCH  16  19
ENDBRANCH  15  16
ENDBRANCH   2  10
BRANCH   6  22
ATOM     22  C   UNL     1      15.577 -19.209  -0.339  1.00  0.00    +0.211 C 
BRANCH  22  23
ATOM     23  C   UNL     1      15.738 -18.332   0.897  1.00  0.00    +0.184 C 
ATOM     24  O   UNL     1      15.961 -17.125   0.827  1.00  0.00    -0.292 OA
BRANCH  23  25
ATOM     25  C   UNL     1      15.603 -18.927   2.239  1.00  0.00    +0.038 A 
ATOM     26  C   UNL     1      16.432 -20.006   2.568  1.00  0.00    +0.015 A 
ATOM     27  C   UNL     1      14.663 -18.448   3.156  1.00  0.00    +0.053 A 
ATOM     28  C   UNL     1      16.336 -20.588   3.832  1.00  0.00    +0.021 A 
ATOM     29  C   UNL     1      14.571 -19.034   4.420  1.00  0.00    +0.041 A 
ATOM     30  C   UNL     1      15.408 -20.099   4.752  1.00  0.00    +0.042 A 
ATOM     31 Cl   UNL     1      13.596 -17.148   2.781  1.00  0.00    -0.083 Cl
ATOM     32 Cl   UNL     1      15.291 -20.818   6.308  1.00  0.00    -0.084 Cl
ENDBRANCH  23  25
ENDBRANCH  22  23
ENDBRANCH   6  22
TORSDOF 6
ENDMDL
MODEL 2
REMARK VINA RESULT:    -8.701      3.504      6.267
REMARK INTER + INTRA:         -12.594
REMARK INTER:                 -10.659
REMARK INTRA:                  -1.935
REMARK UNBOUND:                -1.096
REMARK SMILES CC1(c2ccc(S(N)(=O)=O)cc2)NC(=O)N(CC(=O)c2ccc(Cl)cc2Cl)C1=O
REMARK SMILES IDX 1 1 2 2 13 3 14 4 15 5 16 6 28 7 29 8 3 10 4 11 12 12 5 13
REMARK SMILES IDX 11 14 6 15 7 16 9 17 10 18 8 19 17 22 18 23 19 24 20 25
REMARK SMILES IDX 21 26 26 27 22 28 25 29 23 30 27 31 24 32
REMARK H PARENT 13 9 8 20 8 21
ROOT
ATOM      1  C   UNL     1      18.443 -24.073   4.301  1.00  0.00    +0.051 C 
ATOM      2  C   UNL     1      18.237 -22.947   3.290  1.00  0.00    +0.144 C 
ATOM      3  N   UNL     1      19.515 -22.421   2.860  1.00  0.00    -0.319 N 
ATOM      4  C   UNL     1      19.725 -22.552   1.510  1.00  0.00    +0.325 C 
ATOM      5  O   UNL     1      20.739 -22.182   0.948  1.00  0.00    -0.248 OA
ATOM      6  N   UNL     1      18.647 -23.166   0.960  1.00  0.00    -0.254 N 
ATOM      7  C   UNL     1      17.756 -23.522   1.934  1.00  0.00    +0.261 C 
ATOM      8  O   UNL     1      16.732 -24.170   1.750  1.00  0.00    -0.271 OA
ATOM      9  H   UNL     1      20.219 -22.010   3.458  1.00  0.00    +0.166 HD
ENDROOT
BRANCH   2  10
ATOM     10  C   UNL     1      17.287 -21.860   3.799  1.00  0.00    -0.013 A 
ATOM     11  C   UNL     1      16.777 -21.933   5.111  1.00  0.00    +0.008 A 
ATOM     12  C   UNL     1      16.884 -20.776   2.995  1.00  0.00    +0.008 A 
ATOM     13  C   UNL     1      15.896 -20.968   5.601  1.00  0.00    +0.022 A 
ATOM     14  C   UNL     1      16.006 -19.802   3.481  1.00  0.00    +0.022 A 
ATOM     15  C   UNL     1      15.521 -19.900   4.784  1.00  0.00    +0.082 A 
BRANCH  15  16
ATOM     16  S   UNL     1      14.388 -18.690   5.412  1.00  0.00    +0.238 S 
ATOM     17  O   UNL     1      15.022 -18.009   6.515  1.00  0.00    -0.207 OA
ATOM     18  O   UNL     1      13.077 -19.290   5.507  1.00  0.00    -0.207 OA
BRANCH  16  19
ATOM     19  N   UNL     1      14.290 -17.616   4.118  1.00  0.00    -0.225 NA
ATOM     20  H   UNL     1      15.141 -17.052   4.100  1.00  0.00    +0.137 HD
ATOM     21  H   UNL     1      13.451 -17.038   4.132  1.00  0.00    +0.137 HD
ENDBRANCH  16  19
ENDBRANCH  15  16
ENDBRANCH   2  10
BRANCH   6  22
ATOM     22  C   UNL     1      18.512 -23.512  -0.440  1.00  0.00    +0.211 C 
BRANCH  22  23
ATOM     23  C   UNL     1      18.283 -22.326  -1.370  1.00  0.00    +0.184 C 
ATOM     24  O   UNL     1      18.706 -22.300  -2.524  1.00  0.00    -0.292 OA
BRANCH  23  25
ATOM     25  C   UNL     1      17.508 -21.164  -0.898  1.00  0.00    +0.038 A 
ATOM     26  C   UNL     1      18.213 -20.022  -0.500  1.00  0.00    +0.015 A 
ATOM     27  C   UNL     1      16.113 -21.200  -0.827  1.00  0.00    +0.053 A 
ATOM     28  C   UNL     1      17.511 -18.900  -0.054  1.00  0.00    +0.021 A 
ATOM     29  C   UNL     1      15.415 -20.075  -0.381  1.00  0.00    +0.041 A 
ATOM     30  C   UNL     1      16.118 -18.932   0.001  1.00  0.00    +0.042 A 
ATOM     31 Cl   UNL     1      15.208 -22.598  -1.269  1.00  0.00    -0.083 Cl
ATOM     32 Cl   UNL     1      15.256 -17.551   0.551  1.00  0.00    -0.084 Cl
ENDBRANCH  23  25
ENDBRANCH  22  23
ENDBRANCH   6  22
TORSDOF 6
ENDMDL
MODEL 3
REMARK VINA RESULT:    -8.605      1.120      1.830
REMARK INTER + INTRA:         -12.467
REMARK INTER:                 -12.099
REMARK INTRA:                  -0.368
REMARK UNBOUND:                -1.096
REMARK SMILES CC1(c2ccc(S(N)(=O)=O)cc2)NC(=O)N(CC(=O)c2ccc(Cl)cc2Cl)C1=O
REMARK SMILES IDX 1 1 2 2 13 3 14 4 15 5 16 6 28 7 29 8 3 10 4 11 12 12 5 13
REMARK SMILES IDX 11 14 6 15 7 16 9 17 10 18 8 19 17 22 18 23 19 24 20 25
REMARK SMILES IDX 21 26 26 27 22 28 25 29 23 30 27 31 24 32
REMARK H PARENT 13 9 8 20 8 21
ROOT
ATOM      1  C   UNL     1      18.266 -22.652  -2.440  1.00  0.00    +0.051 C 
ATOM      2  C   UNL     1      18.424 -21.630  -1.317  1.00  0.00    +0.144 C 
ATOM      3  N   UNL     1      18.620 -20.307  -1.871  1.00  0.00    -0.319 N 
ATOM      4  C   UNL     1      17.644 -19.417  -1.499  1.00  0.00    +0.325 C 
ATOM      5  O   UNL     1      17.618 -18.255  -1.862  1.00  0.00    -0.248 OA
ATOM      6  N   UNL     1      16.747 -20.059  -0.709  1.00  0.00    -0.254 N 
ATOM      7  C   UNL     1      17.063 -21.386  -0.616  1.00  0.00    +0.261 C 
ATOM      8  O   UNL     1      16.387 -22.233  -0.045  1.00  0.00    -0.271 OA
ATOM      9  H   UNL     1      19.371 -20.026  -2.486  1.00  0.00    +0.166 HD
ENDROOT
BRANCH   2  10
ATOM     10  C   UNL     1      19.506 -22.019  -0.308  1.00  0.00    -0.013 A 
ATOM     11  C   UNL     1      19.456 -21.509   1.005  1.00  0.00    +0.008 A 
ATOM     12  C   UNL     1      20.576 -22.871  -0.643  1.00  0.00    +0.008 A 
ATOM     13  C   UNL     1      20.437 -21.830   1.945  1.00  0.00    +0.022 A 
ATOM     14  C   UNL     1      21.559 -23.202   0.295  1.00  0.00    +0.022 A 
ATOM     15  C   UNL     1      21.480 -22.684   1.586  1.00  0.00    +0.082 A 
BRANCH  15  16
ATOM     16  S   UNL     1      22.729 -23.071   2.785  1.00  0.00    +0.238 S 
ATOM     17  O   UNL     1      23.619 -21.940   2.888  1.00  0.00    -0.207 OA
ATOM     18  O   UNL     1      23.193 -24.419   2.551  1.00  0.00    -0.207 OA
BRANCH  16  19
ATOM     19  N   UNL     1      21.822 -23.155   4.201  1.00  0.00    -0.225 NA
ATOM     20  H   UNL     1      21.697 -24.138   4.449  1.00  0.00    +0.137 HD
ATOM     21  H   UNL     1      20.932 -22.663   4.144  1.00  0.00    +0.137 HD
ENDBRANCH  16  19
ENDBRANCH  15  16
ENDBRANCH   2  10
BRANCH   6  22
ATOM     22  C   UNL     1      15.553 -19.461  -0.149  1.00  0.00    +0.211 C 
BRANCH  22  23
ATOM     23  C   UNL     1      15.811 -18.324   0.834  1.00  0.00    +0.184 C 
ATOM     24  O   UNL     1      16.534 -17.368   0.563  1.00  0.00    -0.292 OA
BRANCH  23  25
ATOM     25  C   UNL     1      15.162 -18.339   2.158  1.00  0.00    +0.038 A 
ATOM     26  C   UNL     1      14.207 -17.354   2.433  1.00  0.00    +0.015 A 
ATOM     27  C   UNL     1      15.499 -19.293   3.122  1.00  0.00    +0.053 A 
ATOM     28  C   UNL     1      13.566 -17.344   3.673  1.00  0.00    +0.021 A 
ATOM     29  C   UNL     1      14.856 -19.279   4.361  1.00  0.00    +0.041 A 
ATOM     30  C   UNL     1      13.892 -18.306   4.630  1.00  0.00    +0.042 A 
ATOM     31 Cl   UNL     1      16.697 -20.499   2.840  1.00  0.00    -0.083 Cl
ATOM     32 Cl   UNL     1      13.104 -18.290   6.156  1.00  0.00    -0.084 Cl
ENDBRANCH  23  25
ENDBRANCH  22  23
ENDBRANCH   6  22
TORSDOF 6
ENDMDL
MODEL 4
REMARK VINA RESULT:    -8.356      3.593      6.477
REMARK INTER + INTRA:         -12.139
REMARK INTER:                 -10.834
REMARK INTRA:                  -1.305
REMARK UNBOUND:                -1.096
REMARK SMILES CC1(c2ccc(S(N)(=O)=O)cc2)NC(=O)N(CC(=O)c2ccc(Cl)cc2Cl)C1=O
REMARK SMILES IDX 1 1 2 2 13 3 14 4 15 5 16 6 28 7 29 8 3 10 4 11 12 12 5 13
REMARK SMILES IDX 11 14 6 15 7 16 9 17 10 18 8 19 17 22 18 23 19 24 20 25
REMARK SMILES IDX 21 26 26 27 22 28 25 29 23 30 27 31 24 32
REMARK H PARENT 13 9 8 20 8 21
ROOT
ATOM      1  C   UNL     1      17.329 -18.427  -0.822  1.00  0.00    +0.051 C 
ATOM      2  C   UNL     1      16.639 -19.479   0.043  1.00  0.00    +0.144 C 
ATOM      3  N   UNL     1      15.885 -20.393  -0.788  1.00  0.00    -0.319 N 
ATOM      4  C   UNL     1      16.306 -21.695  -0.678  1.00  0.00    +0.325 C 
ATOM      5  O   UNL     1      15.810 -22.618  -1.298  1.00  0.00    -0.248 OA
ATOM      6  N   UNL     1      17.345 -21.744   0.194  1.00  0.00    -0.254 N 
ATOM      7  C   UNL     1      17.679 -20.482   0.603  1.00  0.00    +0.261 C 
ATOM      8  O   UNL     1      18.633 -20.204   1.320  1.00  0.00    -0.271 OA
ATOM      9  H   UNL     1      15.132 -20.143  -1.415  1.00  0.00    +0.166 HD
ENDROOT
BRANCH   2  10
ATOM     10  C   UNL     1      15.799 -18.866   1.166  1.00  0.00    -0.013 A 
ATOM     11  C   UNL     1      15.775 -19.476   2.437  1.00  0.00    +0.008 A 
ATOM     12  C   UNL     1      15.025 -17.705   0.979  1.00  0.00    +0.008 A 
ATOM     13  C   UNL     1      15.007 -18.952   3.478  1.00  0.00    +0.022 A 
ATOM     14  C   UNL     1      14.257 -17.171   2.018  1.00  0.00    +0.022 A 
ATOM     15  C   UNL     1      14.257 -17.795   3.265  1.00  0.00    +0.082 A 
BRANCH  15  16
ATOM     16  S   UNL     1      13.272 -17.150   4.590  1.00  0.00    +0.238 S 
ATOM     17  O   UNL     1      12.017 -16.697   4.039  1.00  0.00    -0.207 OA
ATOM     18  O   UNL     1      14.107 -16.321   5.428  1.00  0.00    -0.207 OA
BRANCH  16  19
ATOM     19  N   UNL     1      12.976 -18.538   5.496  1.00  0.00    -0.225 NA
ATOM     20  H   UNL     1      13.514 -19.308   5.096  1.00  0.00    +0.137 HD
ATOM     21  H   UNL     1      11.987 -18.768   5.577  1.00  0.00    +0.137 HD
ENDBRANCH  16  19
ENDBRANCH  15  16
ENDBRANCH   2  10
BRANCH   6  22
ATOM     22  C   UNL     1      18.082 -22.940   0.543  1.00  0.00    +0.211 C 
BRANCH  22  23
ATOM     23  C   UNL     1      17.488 -23.739   1.698  1.00  0.00    +0.184 C 
ATOM     24  O   UNL     1      17.255 -24.944   1.617  1.00  0.00    -0.292 OA
BRANCH  23  25
ATOM     25  C   UNL     1      17.194 -23.069   2.978  1.00  0.00    +0.038 A 
ATOM     26  C   UNL     1      15.861 -22.752   3.264  1.00  0.00    +0.015 A 
ATOM     27  C   UNL     1      18.212 -22.736   3.875  1.00  0.00    +0.053 A 
ATOM     28  C   UNL     1      15.545 -22.124   4.469  1.00  0.00    +0.021 A 
ATOM     29  C   UNL     1      17.892 -22.108   5.081  1.00  0.00    +0.041 A 
ATOM     30  C   UNL     1      16.561 -21.807   5.372  1.00  0.00    +0.042 A 
ATOM     31 Cl   UNL     1      19.870 -23.071   3.547  1.00  0.00    -0.083 Cl
ATOM     32 Cl   UNL     1      16.171 -21.033   6.855  1.00  0.00    -0.084 Cl
ENDBRANCH  23  25
ENDBRANCH  22  23
ENDBRANCH   6  22
TORSDOF 6
ENDMDL
MODEL 5
REMARK VINA RESULT:    -8.293      3.633      5.441
REMARK INTER + INTRA:         -12.056
REMARK INTER:                 -10.253
REMARK INTRA:                  -1.803
REMARK UNBOUND:                -1.096
REMARK SMILES CC1(c2ccc(S(N)(=O)=O)cc2)NC(=O)N(CC(=O)c2ccc(Cl)cc2Cl)C1=O
REMARK SMILES IDX 1 1 2 2 13 3 14 4 15 5 16 6 28 7 29 8 3 10 4 11 12 12 5 13
REMARK SMILES IDX 11 14 6 15 7 16 9 17 10 18 8 19 17 22 18 23 19 24 20 25
REMARK SMILES IDX 21 26 26 27 22 28 25 29 23 30 27 31 24 32
REMARK H PARENT 13 9 8 20 8 21
ROOT
ATOM      1  C   UNL     1      18.625 -25.699   1.956  1.00  0.00    +0.051 C 
ATOM      2  C   UNL     1      18.570 -24.213   1.610  1.00  0.00    +0.144 C 
ATOM      3  N   UNL     1      19.905 -23.706   1.369  1.00  0.00    -0.319 N 
ATOM      4  C   UNL     1      20.071 -23.206   0.102  1.00  0.00    +0.325 C 
ATOM      5  O   UNL     1      21.120 -22.740  -0.305  1.00  0.00    -0.248 OA
ATOM      6  N   UNL     1      18.906 -23.348  -0.579  1.00  0.00    -0.254 N 
ATOM      7  C   UNL     1      17.988 -24.013   0.187  1.00  0.00    +0.261 C 
ATOM      8  O   UNL     1      16.878 -24.365  -0.192  1.00  0.00    -0.271 OA
ATOM      9  H   UNL     1      20.671 -23.717   2.028  1.00  0.00    +0.166 HD
ENDROOT
BRANCH   2  10
ATOM     10  C   UNL     1      17.799 -23.391   2.645  1.00  0.00    -0.013 A 
ATOM     11  C   UNL     1      18.176 -23.443   4.002  1.00  0.00    +0.008 A 
ATOM     12  C   UNL     1      16.703 -22.579   2.297  1.00  0.00    +0.008 A 
ATOM     13  C   UNL     1      17.483 -22.719   4.975  1.00  0.00    +0.022 A 
ATOM     14  C   UNL     1      16.008 -21.847   3.264  1.00  0.00    +0.022 A 
ATOM     15  C   UNL     1      16.407 -21.916   4.598  1.00  0.00    +0.082 A 
BRANCH  15  16
ATOM     16  S   UNL     1      15.525 -21.016   5.845  1.00  0.00    +0.238 S 
ATOM     17  O   UNL     1      16.464 -20.168   6.537  1.00  0.00    -0.207 OA
ATOM     18  O   UNL     1      14.633 -21.924   6.528  1.00  0.00    -0.207 OA
BRANCH  16  19
ATOM     19  N   UNL     1      14.524 -20.036   4.909  1.00  0.00    -0.225 NA
ATOM     20  H   UNL     1      14.223 -20.567   4.090  1.00  0.00    +0.137 HD
ATOM     21  H   UNL     1      14.952 -19.149   4.650  1.00  0.00    +0.137 HD
ENDBRANCH  16  19
ENDBRANCH  15  16
ENDBRANCH   2  10
BRANCH   6  22
ATOM     22  C   UNL     1      18.699 -22.970  -1.961  1.00  0.00    +0.211 C 
BRANCH  22  23
ATOM     23  C   UNL     1      18.436 -21.484  -2.182  1.00  0.00    +0.184 C 
ATOM     24  O   UNL     1      18.910 -20.863  -3.131  1.00  0.00    -0.292 OA
BRANCH  23  25
ATOM     25  C   UNL     1      17.564 -20.748  -1.248  1.00  0.00    +0.038 A 
ATOM     26  C   UNL     1      18.169 -20.048  -0.197  1.00  0.00    +0.015 A 
ATOM     27  C   UNL     1      16.174 -20.760  -1.387  1.00  0.00    +0.053 A 
ATOM     28  C   UNL     1      17.375 -19.334   0.701  1.00  0.00    +0.021 A 
ATOM     29  C   UNL     1      15.383 -20.044  -0.486  1.00  0.00    +0.041 A 
ATOM     30  C   UNL     1      15.988 -19.334   0.552  1.00  0.00    +0.042 A 
ATOM     31 Cl   UNL     1      15.386 -21.640  -2.642  1.00  0.00    -0.083 Cl
ATOM     32 Cl   UNL     1      15.012 -18.455   1.659  1.00  0.00    -0.084 Cl
ENDBRANCH  23  25
ENDBRANCH  22  23
ENDBRANCH   6  22
TORSDOF 6
ENDMDL
MODEL 6
REMARK VINA RESULT:    -8.236      3.627      6.516
REMARK INTER + INTRA:         -11.981
REMARK INTER:                 -11.030
REMARK INTRA:                  -0.951
REMARK UNBOUND:                -1.096
REMARK SMILES CC1(c2ccc(S(N)(=O)=O)cc2)NC(=O)N(CC(=O)c2ccc(Cl)cc2Cl)C1=O
REMARK SMILES IDX 1 1 2 2 13 3 14 4 15 5 16 6 28 7 29 8 3 10 4 11 12 12 5 13
REMARK SMILES IDX 11 14 6 15 7 16 9 17 10 18 8 19 17 22 18 23 19 24 20 25
REMARK SMILES IDX 21 26 26 27 22 28 25 29 23 30 27 31 24 32
REMARK H PARENT 13 9 8 20 8 21
ROOT
ATOM      1  C   UNL     1      17.514 -18.305  -0.792  1.00  0.00    +0.051 C 
ATOM      2  C   UNL     1      16.736 -19.501  -0.248  1.00  0.00    +0.144 C 
ATOM      3  N   UNL     1      15.750 -19.936  -1.215  1.00  0.00    -0.319 N 
ATOM      4  C   UNL     1      15.939 -21.230  -1.632  1.00  0.00    +0.325 C 
ATOM      5  O   UNL     1      15.225 -21.785  -2.448  1.00  0.00    -0.248 OA
ATOM      6  N   UNL     1      17.034 -21.733  -1.009  1.00  0.00    -0.254 N 
ATOM      7  C   UNL     1      17.629 -20.768  -0.245  1.00  0.00    +0.261 C 
ATOM      8  O   UNL     1      18.685 -20.902   0.363  1.00  0.00    -0.271 OA
ATOM      9  H   UNL     1      14.996 -19.375  -1.587  1.00  0.00    +0.166 HD
ENDROOT
BRANCH   2  10
ATOM     10  C   UNL     1      16.138 -19.240   1.136  1.00  0.00    -0.013 A 
ATOM     11  C   UNL     1      15.163 -18.235   1.300  1.00  0.00    +0.008 A 
ATOM     12  C   UNL     1      16.534 -19.965   2.276  1.00  0.00    +0.008 A 
ATOM     13  C   UNL     1      14.610 -17.959   2.551  1.00  0.00    +0.022 A 
ATOM     14  C   UNL     1      15.980 -19.698   3.532  1.00  0.00    +0.022 A 
ATOM     15  C   UNL     1      15.016 -18.700   3.661  1.00  0.00    +0.082 A 
BRANCH  15  16
ATOM     16  S   UNL     1      14.318 -18.328   5.248  1.00  0.00    +0.238 S 
ATOM     17  O   UNL     1      13.721 -19.534   5.771  1.00  0.00    -0.207 OA
ATOM     18  O   UNL     1      13.608 -17.073   5.159  1.00  0.00    -0.207 OA
BRANCH  16  19
ATOM     19  N   UNL     1      15.698 -17.992   6.153  1.00  0.00    -0.225 NA
ATOM     20  H   UNL     1      15.596 -18.420   7.074  1.00  0.00    +0.137 HD
ATOM     21  H   UNL     1      15.909 -16.997   6.218  1.00  0.00    +0.137 HD
ENDBRANCH  16  19
ENDBRANCH  15  16
ENDBRANCH   2  10
BRANCH   6  22
ATOM     22  C   UNL     1      17.574 -23.060  -1.219  1.00  0.00    +0.211 C 
BRANCH  22  23
ATOM     23  C   UNL     1      17.275 -24.054  -0.102  1.00  0.00    +0.184 C 
ATOM     24  O   UNL     1      16.207 -24.659  -0.024  1.00  0.00    -0.292 OA
BRANCH  23  25
ATOM     25  C   UNL     1      18.297 -24.333   0.923  1.00  0.00    +0.038 A 
ATOM     26  C   UNL     1      19.467 -24.990   0.523  1.00  0.00    +0.015 A 
ATOM     27  C   UNL     1      18.105 -23.974   2.260  1.00  0.00    +0.053 A 
ATOM     28  C   UNL     1      20.459 -25.264   1.465  1.00  0.00    +0.021 A 
ATOM     29  C   UNL     1      19.100 -24.249   3.199  1.00  0.00    +0.041 A 
ATOM     30  C   UNL     1      20.272 -24.891   2.797  1.00  0.00    +0.042 A 
ATOM     31 Cl   UNL     1      16.664 -23.200   2.803  1.00  0.00    -0.083 Cl
ATOM     32 Cl   UNL     1      21.495 -25.229   3.956  1.00  0.00    -0.084 Cl
ENDBRANCH  23  25
ENDBRANCH  22  23
ENDBRANCH   6  22
TORSDOF 6
ENDMDL
MODEL 7
REMARK VINA RESULT:    -8.199      4.781      8.071
REMARK INTER + INTRA:         -11.931
REMARK INTER:                 -11.096
REMARK INTRA:                  -0.836
REMARK UNBOUND:                -1.096
REMARK SMILES CC1(c2ccc(S(N)(=O)=O)cc2)NC(=O)N(CC(=O)c2ccc(Cl)cc2Cl)C1=O
REMARK SMILES IDX 1 1 2 2 13 3 14 4 15 5 16 6 28 7 29 8 3 10 4 11 12 12 5 13
REMARK SMILES IDX 11 14 6 15 7 16 9 17 10 18 8 19 17 22 18 23 19 24 20 25
REMARK SMILES IDX 21 26 26 27 22 28 25 29 23 30 27 31 24 32
REMARK H PARENT 13 9 8 20 8 21
ROOT
ATOM      1  C   UNL     1      16.981 -23.830   2.533  1.00  0.00    +0.051 C 
ATOM      2  C   UNL     1      17.408 -22.377   2.338  1.00  0.00    +0.144 C 
ATOM      3  N   UNL     1      18.814 -22.225   2.649  1.00  0.00    -0.319 N 
ATOM      4  C   UNL     1      19.556 -21.778   1.584  1.00  0.00    +0.325 C 
ATOM      5  O   UNL     1      20.758 -21.591   1.633  1.00  0.00    -0.248 OA
ATOM      6  N   UNL     1      18.734 -21.618   0.517  1.00  0.00    -0.254 N 
ATOM      7  C   UNL     1      17.468 -22.032   0.828  1.00  0.00    +0.261 C 
ATOM      8  O   UNL     1      16.532 -22.090   0.040  1.00  0.00    -0.271 OA
ATOM      9  H   UNL     1      19.251 -22.431   3.537  1.00  0.00    +0.166 HD
ENDROOT
BRANCH   2  10
ATOM     10  C   UNL     1      16.520 -21.390   3.098  1.00  0.00    -0.013 A 
ATOM     11  C   UNL     1      16.446 -20.047   2.679  1.00  0.00    +0.008 A 
ATOM     12  C   UNL     1      15.769 -21.769   4.227  1.00  0.00    +0.008 A 
ATOM     13  C   UNL     1      15.660 -19.116   3.360  1.00  0.00    +0.022 A 
ATOM     14  C   UNL     1      14.974 -20.845   4.912  1.00  0.00    +0.022 A 
ATOM     15  C   UNL     1      14.919 -19.524   4.470  1.00  0.00    +0.082 A 
BRANCH  15  16
ATOM     16  S   UNL     1      13.937 -18.329   5.337  1.00  0.00    +0.238 S 
ATOM     17  O   UNL     1      14.683 -17.885   6.490  1.00  0.00    -0.207 OA
ATOM     18  O   UNL     1      12.580 -18.817   5.419  1.00  0.00    -0.207 OA
BRANCH  16  19
ATOM     19  N   UNL     1      13.886 -17.064   4.226  1.00  0.00    -0.225 NA
ATOM     20  H   UNL     1      13.670 -17.450   3.305  1.00  0.00    +0.137 HD
ATOM     21  H   UNL     1      14.735 -16.501   4.212  1.00  0.00    +0.137 HD
ENDBRANCH  16  19
ENDBRANCH  15  16
ENDBRANCH   2  10
BRANCH   6  22
ATOM     22  C   UNL     1      19.155 -21.195  -0.802  1.00  0.00    +0.211 C 
BRANCH  22  23
ATOM     23  C   UNL     1      19.727 -22.306  -1.675  1.00  0.00    +0.184 C 
ATOM     24  O   UNL     1      19.598 -23.497  -1.398  1.00  0.00    -0.292 OA
BRANCH  23  25
ATOM     25  C   UNL     1      20.446 -21.966  -2.916  1.00  0.00    +0.038 A 
ATOM     26  C   UNL     1      19.689 -21.617  -4.041  1.00  0.00    +0.015 A 
ATOM     27  C   UNL     1      21.842 -22.006  -2.983  1.00  0.00    +0.053 A 
ATOM     28  C   UNL     1      20.337 -21.281  -5.230  1.00  0.00    +0.021 A 
ATOM     29  C   UNL     1      22.486 -21.668  -4.175  1.00  0.00    +0.041 A 
ATOM     30  C   UNL     1      21.731 -21.306  -5.291  1.00  0.00    +0.042 A 
ATOM     31 Cl   UNL     1      22.811 -22.467  -1.635  1.00  0.00    -0.083 Cl
ATOM     32 Cl   UNL     1      22.527 -20.893  -6.757  1.00  0.00    -0.084 Cl
ENDBRANCH  23  25
ENDBRANCH  22  23
ENDBRANCH   6  22
TORSDOF 6
ENDMDL
MODEL 8
REMARK VINA RESULT:    -8.128      3.436      5.197
REMARK INTER + INTRA:         -11.837
REMARK INTER:                 -11.156
REMARK INTRA:                  -0.682
REMARK UNBOUND:                -1.096
REMARK SMILES CC1(c2ccc(S(N)(=O)=O)cc2)NC(=O)N(CC(=O)c2ccc(Cl)cc2Cl)C1=O
REMARK SMILES IDX 1 1 2 2 13 3 14 4 15 5 16 6 28 7 29 8 3 10 4 11 12 12 5 13
REMARK SMILES IDX 11 14 6 15 7 16 9 17 10 18 8 19 17 22 18 23 19 24 20 25
REMARK SMILES IDX 21 26 26 27 22 28 25 29 23 30 27 31 24 32
REMARK H PARENT 13 9 8 20 8 21
ROOT
ATOM      1  C   UNL     1      21.470 -22.738   1.272  1.00  0.00    +0.051 C 
ATOM      2  C   UNL     1      20.146 -22.962   0.545  1.00  0.00    +0.144 C 
ATOM      3  N   UNL     1      19.608 -24.264   0.878  1.00  0.00    -0.319 N 
ATOM      4  C   UNL     1      18.378 -24.200   1.483  1.00  0.00    +0.325 C 
ATOM      5  O   UNL     1      17.757 -25.181   1.850  1.00  0.00    -0.248 OA
ATOM      6  N   UNL     1      18.022 -22.897   1.609  1.00  0.00    -0.254 N 
ATOM      7  C   UNL     1      19.032 -22.086   1.173  1.00  0.00    +0.261 C 
ATOM      8  O   UNL     1      19.035 -20.863   1.246  1.00  0.00    -0.271 OA
ATOM      9  H   UNL     1      20.063 -25.153   0.718  1.00  0.00    +0.166 HD
ENDROOT
BRANCH   2  10
ATOM     10  C   UNL     1      20.251 -22.729  -0.963  1.00  0.00    -0.013 A 
ATOM     11  C   UNL     1      21.517 -22.711  -1.583  1.00  0.00    +0.008 A 
ATOM     12  C   UNL     1      19.119 -22.516  -1.773  1.00  0.00    +0.008 A 
ATOM     13  C   UNL     1      21.651 -22.484  -2.954  1.00  0.00    +0.022 A 
ATOM     14  C   UNL     1      19.244 -22.294  -3.148  1.00  0.00    +0.022 A 
ATOM     15  C   UNL     1      20.510 -22.285  -3.732  1.00  0.00    +0.082 A 
BRANCH  15  16
ATOM     16  S   UNL     1      20.693 -21.980  -5.469  1.00  0.00    +0.238 S 
ATOM     17  O   UNL     1      20.281 -23.166  -6.180  1.00  0.00    -0.207 OA
ATOM     18  O   UNL     1      21.963 -21.330  -5.693  1.00  0.00    -0.207 OA
BRANCH  16  19
ATOM     19  N   UNL     1      19.534 -20.785  -5.726  1.00  0.00    -0.225 NA
ATOM     20  H   UNL     1      19.658 -20.056  -5.022  1.00  0.00    +0.137 HD
ATOM     21  H   UNL     1      18.580 -21.141  -5.739  1.00  0.00    +0.137 HD
ENDBRANCH  16  19
ENDBRANCH  15  16
ENDBRANCH   2  10
BRANCH   6  22
ATOM     22  C   UNL     1      16.803 -22.424   2.233  1.00  0.00    +0.211 C 
BRANCH  22  23
ATOM     23  C   UNL     1      16.987 -21.853   3.635  1.00  0.00    +0.184 C 
ATOM     24  O   UNL     1      17.995 -22.060   4.307  1.00  0.00    -0.292 OA
BRANCH  23  25
ATOM     25  C   UNL     1      15.938 -20.996   4.218  1.00  0.00    +0.038 A 
ATOM     26  C   UNL     1      15.220 -21.489   5.314  1.00  0.00    +0.015 A 
ATOM     27  C   UNL     1      15.649 -19.736   3.688  1.00  0.00    +0.053 A 
ATOM     28  C   UNL     1      14.226 -20.702   5.897  1.00  0.00    +0.021 A 
ATOM     29  C   UNL     1      14.654 -18.952   4.274  1.00  0.00    +0.041 A 
ATOM     30  C   UNL     1      13.949 -19.438   5.375  1.00  0.00    +0.042 A 
ATOM     31 Cl   UNL     1      16.480 -19.106   2.316  1.00  0.00    -0.083 Cl
ATOM     32 Cl   UNL     1      12.723 -18.471   6.094  1.00  0.00    -0.084 Cl
ENDBRANCH  23  25
ENDBRANCH  22  23
ENDBRANCH   6  22
TORSDOF 6
ENDMDL
MODEL 9
REMARK VINA RESULT:    -7.990      3.098      4.489
REMARK INTER + INTRA:         -11.655
REMARK INTER:                 -11.361
REMARK INTRA:                  -0.294
REMARK UNBOUND:                -1.096
REMARK SMILES CC1(c2ccc(S(N)(=O)=O)cc2)NC(=O)N(CC(=O)c2ccc(Cl)cc2Cl)C1=O
REMARK SMILES IDX 1 1 2 2 13 3 14 4 15 5 16 6 28 7 29 8 3 10 4 11 12 12 5 13
REMARK SMILES IDX 11 14 6 15 7 16 9 17 10 18 8 19 17 22 18 23 19 24 20 25
REMARK SMILES IDX 21 26 26 27 22 28 25 29 23 30 27 31 24 32
REMARK H PARENT 13 9 8 20 8 21
ROOT
ATOM      1  C   UNL     1      15.510 -22.307  -1.459  1.00  0.00    +0.051 C 
ATOM      2  C   UNL     1      16.687 -21.368  -1.199  1.00  0.00    +0.144 C 
ATOM      3  N   UNL     1      16.258 -19.989  -1.305  1.00  0.00    -0.319 N 
ATOM      4  C   UNL     1      16.433 -19.279  -0.144  1.00  0.00    +0.325 C 
ATOM      5  O   UNL     1      16.129 -18.107  -0.020  1.00  0.00    -0.248 OA
ATOM      6  N   UNL     1      16.959 -20.105   0.796  1.00  0.00    -0.254 N 
ATOM      7  C   UNL     1      17.061 -21.377   0.305  1.00  0.00    +0.261 C 
ATOM      8  O   UNL     1      17.417 -22.355   0.951  1.00  0.00    -0.271 OA
ATOM      9  H   UNL     1      15.849 -19.556  -2.122  1.00  0.00    +0.166 HD
ENDROOT
BRANCH   2  10
ATOM     10  C   UNL     1      17.901 -21.683  -2.075  1.00  0.00    -0.013 A 
ATOM     11  C   UNL     1      18.156 -20.908  -3.224  1.00  0.00    +0.008 A 
ATOM     12  C   UNL     1      18.785 -22.740  -1.785  1.00  0.00    +0.008 A 
ATOM     13  C   UNL     1      19.245 -21.179  -4.055  1.00  0.00    +0.022 A 
ATOM     14  C   UNL     1      19.881 -23.014  -2.608  1.00  0.00    +0.022 A 
ATOM     15  C   UNL     1      20.109 -22.227  -3.736  1.00  0.00    +0.082 A 
BRANCH  15  16
ATOM     16  S   UNL     1      21.478 -22.572  -4.808  1.00  0.00    +0.238 S 
ATOM     17  O   UNL     1      22.694 -22.229  -4.111  1.00  0.00    -0.207 OA
ATOM     18  O   UNL     1      21.165 -22.083  -6.131  1.00  0.00    -0.207 OA
BRANCH  16  19
ATOM     19  N   UNL     1      21.398 -24.250  -4.927  1.00  0.00    -0.225 NA
ATOM     20  H   UNL     1      20.461 -24.510  -5.239  1.00  0.00    +0.137 HD
ATOM     21  H   UNL     1      21.659 -24.732  -4.068  1.00  0.00    +0.137 HD
ENDBRANCH  16  19
ENDBRANCH  15  16
ENDBRANCH   2  10
BRANCH   6  22
ATOM     22  C   UNL     1      17.252 -19.729   2.163  1.00  0.00    +0.211 C 
BRANCH  22  23
ATOM     23  C   UNL     1      16.219 -20.189   3.186  1.00  0.00    +0.184 C 
ATOM     24  O   UNL     1      16.143 -21.354   3.569  1.00  0.00    -0.292 OA
BRANCH  23  25
ATOM     25  C   UNL     1      15.280 -19.213   3.767  1.00  0.00    +0.038 A 
ATOM     26  C   UNL     1      14.572 -18.380   2.893  1.00  0.00    +0.015 A 
ATOM     27  C   UNL     1      15.110 -19.101   5.150  1.00  0.00    +0.053 A 
ATOM     28  C   UNL     1      13.668 -17.450   3.409  1.00  0.00    +0.021 A 
ATOM     29  C   UNL     1      14.205 -18.170   5.662  1.00  0.00    +0.041 A 
ATOM     30  C   UNL     1      13.488 -17.350   4.789  1.00  0.00    +0.042 A 
ATOM     31 Cl   UNL     1      15.990 -20.079   6.264  1.00  0.00    -0.083 Cl
ATOM     32 Cl   UNL     1      12.376 -16.204   5.422  1.00  0.00    -0.084 Cl
ENDBRANCH  23  25
ENDBRANCH  22  23
ENDBRANCH   6  22
TORSDOF 6
ENDMDL
