MODEL 1
REMARK VINA RESULT:    -8.815      0.000      0.000
REMARK INTER + INTRA:         -11.909
REMARK INTER:                 -11.391
REMARK INTRA:                  -0.518
REMARK UNBOUND:                -0.518
REMARK SMILES CNC(=O)/C=C/c1cc(C(F)(F)F)cc2c(=O)nc(N3CCN(CC4CCCCC4)CC3)sc12
REMARK SMILES IDX 7 1 8 2 9 3 14 4 15 5 16 6 17 7 18 8 19 9 20 10 21 11 22 12
REMARK SMILES IDX 23 13 31 14 32 15 33 16 34 17 6 18 5 19 3 20 2 21 4 22 1 23
REMARK SMILES IDX 10 25 11 26 12 27 13 28 24 29 25 30 26 31 30 32 27 33 29 34
REMARK SMILES IDX 28 35
REMARK H PARENT 2 24
ROOT
ATOM      1  C   UNL     1      16.977 -23.483   0.835  1.00  0.00    -0.007 A 
ATOM      2  C   UNL     1      16.553 -23.029   2.099  1.00  0.00    +0.022 A 
ATOM      3  C   UNL     1      16.635 -21.674   2.454  1.00  0.00    +0.057 A 
ATOM      4  C   UNL     1      17.179 -20.774   1.532  1.00  0.00    +0.028 A 
ATOM      5  C   UNL     1      17.632 -21.223   0.280  1.00  0.00    +0.060 A 
ATOM      6  C   UNL     1      18.196 -20.243  -0.671  1.00  0.00    +0.281 C 
ATOM      7  O   UNL     1      17.817 -19.080  -0.583  1.00  0.00    -0.267 OA
ATOM      8  N   UNL     1      19.172 -20.628  -1.545  1.00  0.00    -0.181 NA
ATOM      9  C   UNL     1      19.224 -21.805  -2.083  1.00  0.00    +0.189 C 
ATOM     10  N   UNL     1      20.223 -22.127  -2.991  1.00  0.00    -0.345 N 
ATOM     11  C   UNL     1      20.512 -23.498  -3.445  1.00  0.00    +0.134 C 
ATOM     12  C   UNL     1      21.734 -23.568  -4.390  1.00  0.00    +0.106 C 
ATOM     13  N   UNL     1      21.741 -22.542  -5.452  1.00  0.00    -0.300 NA
ATOM     14  C   UNL     1      21.653 -21.197  -4.825  1.00  0.00    +0.106 C 
ATOM     15  C   UNL     1      21.263 -21.141  -3.326  1.00  0.00    +0.134 C 
ATOM     16  S   UNL     1      18.033 -23.052  -1.719  1.00  0.00    -0.098 SA
ATOM     17  C   UNL     1      17.533 -22.566  -0.082  1.00  0.00    +0.051 A 
ENDROOT
BRANCH   1  18
ATOM     18  C   UNL     1      16.861 -24.920   0.528  1.00  0.00    +0.015 C 
ATOM     19  C   UNL     1      17.627 -25.852   1.115  1.00  0.00    +0.072 C 
BRANCH  19  20
ATOM     20  C   UNL     1      17.531 -27.296   0.794  1.00  0.00    +0.243 C 
ATOM     21  N   UNL     1      16.444 -27.940   1.329  1.00  0.00    -0.356 N 
ATOM     22  O   UNL     1      18.417 -27.841   0.149  1.00  0.00    -0.270 OA
ATOM     23  C   UNL     1      16.311 -29.371   1.220  1.00  0.00    +0.143 C 
ATOM     24  H   UNL     1      15.902 -27.464   2.037  1.00  0.00    +0.163 HD
ENDBRANCH  19  20
ENDBRANCH   1  18
BRANCH   3  25
ATOM     25  C   UNL     1      16.184 -21.207   3.818  1.00  0.00    +0.416 C 
ATOM     26  F   UNL     1      15.731 -19.924   3.794  1.00  0.00    -0.166 F 
ATOM     27  F   UNL     1      15.172 -21.957   4.332  1.00  0.00    -0.166 F 
ATOM     28  F   UNL     1      17.182 -21.238   4.744  1.00  0.00    -0.166 F 
ENDBRANCH   3  25
BRANCH  13  29
ATOM     29  C   UNL     1      20.648 -22.766  -6.413  1.00  0.00    +0.088 C 
BRANCH  29  30
ATOM     30  C   UNL     1      20.930 -22.340  -7.877  1.00  0.00    +0.003 C 
ATOM     31  C   UNL     1      22.282 -22.855  -8.404  1.00  0.00    +0.005 C 
ATOM     32  C   UNL     1      20.719 -20.848  -8.184  1.00  0.00    +0.005 C 
ATOM     33  C   UNL     1      23.466 -21.942  -8.104  1.00  0.00    +0.000 C 
ATOM     34  C   UNL     1      21.934 -19.955  -7.944  1.00  0.00    +0.000 C 
ATOM     35  C   UNL     1      23.200 -20.518  -8.574  1.00  0.00    +0.000 C 
ENDBRANCH  29  30
ENDBRANCH  13  29
TORSDOF 5
ENDMDL
MODEL 2
REMARK VINA RESULT:    -8.650      4.573      8.082
REMARK INTER + INTRA:         -11.696
REMARK INTER:                 -11.818
REMARK INTRA:                   0.121
REMARK UNBOUND:                -0.518
REMARK SMILES CNC(=O)/C=C/c1cc(C(F)(F)F)cc2c(=O)nc(N3CCN(CC4CCCCC4)CC3)sc12
REMARK SMILES IDX 7 1 8 2 9 3 14 4 15 5 16 6 17 7 18 8 19 9 20 10 21 11 22 12
REMARK SMILES IDX 23 13 31 14 32 15 33 16 34 17 6 18 5 19 3 20 2 21 4 22 1 23
REMARK SMILES IDX 10 25 11 26 12 27 13 28 24 29 25 30 26 31 30 32 27 33 29 34
REMARK SMILES IDX 28 35
REMARK H PARENT 2 24
ROOT
ATOM      1  C   UNL     1      15.760 -18.862   2.117  1.00  0.00    -0.007 A 
ATOM      2  C   UNL     1      14.623 -18.191   2.606  1.00  0.00    +0.022 A 
ATOM      3  C   UNL     1      14.220 -18.315   3.944  1.00  0.00    +0.057 A 
ATOM      4  C   UNL     1      14.959 -19.149   4.789  1.00  0.00    +0.028 A 
ATOM      5  C   UNL     1      16.078 -19.845   4.303  1.00  0.00    +0.060 A 
ATOM      6  C   UNL     1      16.838 -20.714   5.226  1.00  0.00    +0.281 C 
ATOM      7  O   UNL     1      16.810 -20.438   6.421  1.00  0.00    -0.267 OA
ATOM      8  N   UNL     1      17.464 -21.830   4.750  1.00  0.00    -0.181 NA
ATOM      9  C   UNL     1      18.006 -21.897   3.576  1.00  0.00    +0.189 C 
ATOM     10  N   UNL     1      18.657 -23.050   3.159  1.00  0.00    -0.345 N 
ATOM     11  C   UNL     1      19.067 -23.307   1.768  1.00  0.00    +0.134 C 
ATOM     12  C   UNL     1      19.694 -24.708   1.581  1.00  0.00    +0.106 C 
ATOM     13  N   UNL     1      20.694 -25.070   2.606  1.00  0.00    -0.300 NA
ATOM     14  C   UNL     1      20.068 -24.962   3.950  1.00  0.00    +0.106 C 
ATOM     15  C   UNL     1      18.705 -24.229   4.039  1.00  0.00    +0.134 C 
ATOM     16  S   UNL     1      17.974 -20.539   2.452  1.00  0.00    -0.098 SA
ATOM     17  C   UNL     1      16.491 -19.709   2.979  1.00  0.00    +0.051 A 
ENDROOT
BRANCH   1  18
ATOM     18  C   UNL     1      16.127 -18.686   0.701  1.00  0.00    +0.015 C 
ATOM     19  C   UNL     1      16.979 -19.505   0.065  1.00  0.00    +0.072 C 
BRANCH  19  20
ATOM     20  C   UNL     1      17.370 -19.322  -1.353  1.00  0.00    +0.243 C 
ATOM     21  N   UNL     1      17.486 -20.480  -2.079  1.00  0.00    -0.356 N 
ATOM     22  O   UNL     1      17.622 -18.202  -1.779  1.00  0.00    -0.270 OA
ATOM     23  C   UNL     1      18.002 -20.455  -3.424  1.00  0.00    +0.143 C 
ATOM     24  H   UNL     1      17.489 -21.361  -1.584  1.00  0.00    +0.163 HD
ENDBRANCH  19  20
ENDBRANCH   1  18
BRANCH   3  25
ATOM     25  C   UNL     1      12.991 -17.595   4.448  1.00  0.00    +0.416 C 
ATOM     26  F   UNL     1      12.115 -18.443   5.052  1.00  0.00    -0.166 F 
ATOM     27  F   UNL     1      13.275 -16.629   5.363  1.00  0.00    -0.166 F 
ATOM     28  F   UNL     1      12.296 -16.977   3.454  1.00  0.00    -0.166 F 
ENDBRANCH   3  25
BRANCH  13  29
ATOM     29  C   UNL     1      21.894 -24.224   2.496  1.00  0.00    +0.088 C 
BRANCH  29  30
ATOM     30  C   UNL     1      22.758 -24.098   3.778  1.00  0.00    +0.003 C 
ATOM     31  C   UNL     1      23.453 -22.729   3.904  1.00  0.00    +0.005 C 
ATOM     32  C   UNL     1      23.724 -25.264   4.043  1.00  0.00    +0.005 C 
ATOM     33  C   UNL     1      24.805 -22.641   3.206  1.00  0.00    +0.000 C 
ATOM     34  C   UNL     1      25.099 -25.131   3.394  1.00  0.00    +0.000 C 
ATOM     35  C   UNL     1      25.729 -23.769   3.646  1.00  0.00    +0.000 C 
ENDBRANCH  29  30
ENDBRANCH  13  29
TORSDOF 5
ENDMDL
MODEL 3
REMARK VINA RESULT:    -8.615      6.177     10.356
REMARK INTER + INTRA:         -11.651
REMARK INTER:                 -10.995
REMARK INTRA:                  -0.657
REMARK UNBOUND:                -0.518
REMARK SMILES CNC(=O)/C=C/c1cc(C(F)(F)F)cc2c(=O)nc(N3CCN(CC4CCCCC4)CC3)sc12
REMARK SMILES IDX 7 1 8 2 9 3 14 4 15 5 16 6 17 7 18 8 19 9 20 10 21 11 22 12
REMARK SMILES IDX 23 13 31 14 32 15 33 16 34 17 6 18 5 19 3 20 2 21 4 22 1 23
REMARK SMILES IDX 10 25 11 26 12 27 13 28 24 29 25 30 26 31 30 32 27 33 29 34
REMARK SMILES IDX 28 35
REMARK H PARENT 2 24
ROOT
ATOM      1  C   UNL     1      20.666 -23.773   1.698  1.00  0.00    -0.007 A 
ATOM      2  C   UNL     1      21.061 -24.861   0.897  1.00  0.00    +0.022 A 
ATOM      3  C   UNL     1      20.130 -25.587   0.138  1.00  0.00    +0.057 A 
ATOM      4  C   UNL     1      18.781 -25.226   0.215  1.00  0.00    +0.028 A 
ATOM      5  C   UNL     1      18.374 -24.160   1.035  1.00  0.00    +0.060 A 
ATOM      6  C   UNL     1      16.940 -23.804   1.087  1.00  0.00    +0.281 C 
ATOM      7  O   UNL     1      16.251 -24.068   0.107  1.00  0.00    -0.267 OA
ATOM      8  N   UNL     1      16.410 -23.284   2.233  1.00  0.00    -0.181 NA
ATOM      9  C   UNL     1      17.062 -22.497   3.028  1.00  0.00    +0.189 C 
ATOM     10  N   UNL     1      16.458 -21.974   4.163  1.00  0.00    -0.345 N 
ATOM     11  C   UNL     1      17.189 -21.295   5.245  1.00  0.00    +0.134 C 
ATOM     12  C   UNL     1      16.271 -20.893   6.423  1.00  0.00    +0.106 C 
ATOM     13  N   UNL     1      15.008 -20.244   6.017  1.00  0.00    -0.300 NA
ATOM     14  C   UNL     1      14.282 -21.144   5.084  1.00  0.00    +0.106 C 
ATOM     15  C   UNL     1      15.072 -22.341   4.497  1.00  0.00    +0.134 C 
ATOM     16  S   UNL     1      18.731 -22.026   2.714  1.00  0.00    -0.098 SA
ATOM     17  C   UNL     1      19.300 -23.426   1.774  1.00  0.00    +0.051 A 
ENDROOT
BRANCH   1  18
ATOM     18  C   UNL     1      21.697 -23.053   2.468  1.00  0.00    +0.015 C 
ATOM     19  C   UNL     1      22.960 -22.916   2.037  1.00  0.00    +0.072 C 
BRANCH  19  20
ATOM     20  C   UNL     1      24.007 -22.213   2.816  1.00  0.00    +0.243 C 
ATOM     21  N   UNL     1      23.899 -22.333   4.178  1.00  0.00    -0.356 N 
ATOM     22  O   UNL     1      24.847 -21.533   2.239  1.00  0.00    -0.270 OA
ATOM     23  C   UNL     1      24.761 -21.580   5.053  1.00  0.00    +0.143 C 
ATOM     24  H   UNL     1      23.045 -22.713   4.562  1.00  0.00    +0.163 HD
ENDBRANCH  19  20
ENDBRANCH   1  18
BRANCH   3  25
ATOM     25  C   UNL     1      20.571 -26.757  -0.708  1.00  0.00    +0.416 C 
ATOM     26  F   UNL     1      19.623 -27.731  -0.767  1.00  0.00    -0.166 F 
ATOM     27  F   UNL     1      20.842 -26.413  -1.996  1.00  0.00    -0.166 F 
ATOM     28  F   UNL     1      21.699 -27.356  -0.235  1.00  0.00    -0.166 F 
ENDBRANCH   3  25
BRANCH  13  29
ATOM     29  C   UNL     1      15.261 -18.924   5.413  1.00  0.00    +0.088 C 
BRANCH  29  30
ATOM     30  C   UNL     1      14.313 -17.780   5.857  1.00  0.00    +0.003 C 
ATOM     31  C   UNL     1      12.931 -18.285   6.313  1.00  0.00    +0.005 C 
ATOM     32  C   UNL     1      14.203 -16.596   4.882  1.00  0.00    +0.005 C 
ATOM     33  C   UNL     1      11.914 -18.444   5.189  1.00  0.00    +0.000 C 
ATOM     34  C   UNL     1      13.133 -16.738   3.802  1.00  0.00    +0.000 C 
ATOM     35  C   UNL     1      11.789 -17.165   4.372  1.00  0.00    +0.000 C 
ENDBRANCH  29  30
ENDBRANCH  13  29
TORSDOF 5
ENDMDL
MODEL 4
REMARK VINA RESULT:    -8.325      2.719      4.849
REMARK INTER + INTRA:         -11.277
REMARK INTER:                 -10.599
REMARK INTRA:                  -0.678
REMARK UNBOUND:                -0.518
REMARK SMILES CNC(=O)/C=C/c1cc(C(F)(F)F)cc2c(=O)nc(N3CCN(CC4CCCCC4)CC3)sc12
REMARK SMILES IDX 7 1 8 2 9 3 14 4 15 5 16 6 17 7 18 8 19 9 20 10 21 11 22 12
REMARK SMILES IDX 23 13 31 14 32 15 33 16 34 17 6 18 5 19 3 20 2 21 4 22 1 23
REMARK SMILES IDX 10 25 11 26 12 27 13 28 24 29 25 30 26 31 30 32 27 33 29 34
REMARK SMILES IDX 28 35
REMARK H PARENT 2 24
ROOT
ATOM      1  C   UNL     1      18.372 -21.382   1.151  1.00  0.00    -0.007 A 
ATOM      2  C   UNL     1      18.021 -21.978   2.377  1.00  0.00    +0.022 A 
ATOM      3  C   UNL     1      18.700 -23.106   2.863  1.00  0.00    +0.057 A 
ATOM      4  C   UNL     1      19.724 -23.654   2.084  1.00  0.00    +0.028 A 
ATOM      5  C   UNL     1      20.061 -23.084   0.846  1.00  0.00    +0.060 A 
ATOM      6  C   UNL     1      21.153 -23.687   0.053  1.00  0.00    +0.281 C 
ATOM      7  O   UNL     1      22.028 -24.298   0.659  1.00  0.00    -0.267 OA
ATOM      8  N   UNL     1      21.115 -23.630  -1.311  1.00  0.00    -0.181 NA
ATOM      9  C   UNL     1      20.630 -22.625  -1.969  1.00  0.00    +0.189 C 
ATOM     10  N   UNL     1      20.649 -22.611  -3.357  1.00  0.00    -0.345 N 
ATOM     11  C   UNL     1      19.896 -21.649  -4.180  1.00  0.00    +0.134 C 
ATOM     12  C   UNL     1      20.036 -21.924  -5.695  1.00  0.00    +0.106 C 
ATOM     13  N   UNL     1      21.420 -22.182  -6.142  1.00  0.00    -0.300 NA
ATOM     14  C   UNL     1      21.976 -23.318  -5.360  1.00  0.00    +0.106 C 
ATOM     15  C   UNL     1      21.189 -23.761  -4.100  1.00  0.00    +0.134 C 
ATOM     16  S   UNL     1      19.944 -21.220  -1.157  1.00  0.00    -0.098 SA
ATOM     17  C   UNL     1      19.401 -21.952   0.371  1.00  0.00    +0.051 A 
ENDROOT
BRANCH   1  18
ATOM     18  C   UNL     1      17.618 -20.198   0.702  1.00  0.00    +0.015 C 
ATOM     19  C   UNL     1      16.785 -19.520   1.506  1.00  0.00    +0.072 C 
BRANCH  19  20
ATOM     20  C   UNL     1      16.007 -18.341   1.055  1.00  0.00    +0.243 C 
ATOM     21  N   UNL     1      15.278 -17.716   2.034  1.00  0.00    -0.356 N 
ATOM     22  O   UNL     1      16.000 -18.029  -0.129  1.00  0.00    -0.270 OA
ATOM     23  C   UNL     1      14.364 -16.653   1.703  1.00  0.00    +0.143 C 
ATOM     24  H   UNL     1      15.162 -18.184   2.922  1.00  0.00    +0.163 HD
ENDBRANCH  19  20
ENDBRANCH   1  18
BRANCH   3  25
ATOM     25  C   UNL     1      18.303 -23.738   4.176  1.00  0.00    +0.416 C 
ATOM     26  F   UNL     1      17.925 -25.036   4.025  1.00  0.00    -0.166 F 
ATOM     27  F   UNL     1      19.307 -23.739   5.094  1.00  0.00    -0.166 F 
ATOM     28  F   UNL     1      17.253 -23.106   4.771  1.00  0.00    -0.166 F 
ENDBRANCH   3  25
BRANCH  13  29
ATOM     29  C   UNL     1      22.253 -20.974  -6.011  1.00  0.00    +0.088 C 
BRANCH  29  30
ATOM     30  C   UNL     1      22.909 -20.455  -7.316  1.00  0.00    +0.003 C 
ATOM     31  C   UNL     1      22.051 -20.718  -8.568  1.00  0.00    +0.005 C 
ATOM     32  C   UNL     1      24.377 -20.862  -7.526  1.00  0.00    +0.005 C 
ATOM     33  C   UNL     1      22.275 -22.081  -9.213  1.00  0.00    +0.000 C 
ATOM     34  C   UNL     1      24.588 -22.198  -8.235  1.00  0.00    +0.000 C 
ATOM     35  C   UNL     1      23.751 -22.320  -9.500  1.00  0.00    +0.000 C 
ENDBRANCH  29  30
ENDBRANCH  13  29
TORSDOF 5
ENDMDL
MODEL 5
REMARK VINA RESULT:    -8.189      4.770      9.942
REMARK INTER + INTRA:         -11.100
REMARK INTER:                 -10.639
REMARK INTRA:                  -0.461
REMARK UNBOUND:                -0.518
REMARK SMILES CNC(=O)/C=C/c1cc(C(F)(F)F)cc2c(=O)nc(N3CCN(CC4CCCCC4)CC3)sc12
REMARK SMILES IDX 7 1 8 2 9 3 14 4 15 5 16 6 17 7 18 8 19 9 20 10 21 11 22 12
REMARK SMILES IDX 23 13 31 14 32 15 33 16 34 17 6 18 5 19 3 20 2 21 4 22 1 23
REMARK SMILES IDX 10 25 11 26 12 27 13 28 24 29 25 30 26 31 30 32 27 33 29 34
REMARK SMILES IDX 28 35
REMARK H PARENT 2 24
ROOT
ATOM      1  C   UNL     1      21.645 -22.482  -2.413  1.00  0.00    -0.007 A 
ATOM      2  C   UNL     1      21.763 -22.573  -3.813  1.00  0.00    +0.022 A 
ATOM      3  C   UNL     1      20.672 -22.316  -4.657  1.00  0.00    +0.057 A 
ATOM      4  C   UNL     1      19.442 -21.992  -4.077  1.00  0.00    +0.028 A 
ATOM      5  C   UNL     1      19.307 -21.927  -2.680  1.00  0.00    +0.060 A 
ATOM      6  C   UNL     1      17.993 -21.577  -2.102  1.00  0.00    +0.281 C 
ATOM      7  O   UNL     1      17.235 -20.892  -2.783  1.00  0.00    -0.267 OA
ATOM      8  N   UNL     1      17.625 -22.088  -0.891  1.00  0.00    -0.181 NA
ATOM      9  C   UNL     1      18.459 -22.302   0.077  1.00  0.00    +0.189 C 
ATOM     10  N   UNL     1      18.019 -22.793   1.298  1.00  0.00    -0.345 N 
ATOM     11  C   UNL     1      18.914 -23.307   2.348  1.00  0.00    +0.134 C 
ATOM     12  C   UNL     1      18.142 -23.868   3.565  1.00  0.00    +0.106 C 
ATOM     13  N   UNL     1      17.047 -23.002   4.045  1.00  0.00    -0.300 NA
ATOM     14  C   UNL     1      16.111 -22.740   2.920  1.00  0.00    +0.106 C 
ATOM     15  C   UNL     1      16.596 -23.113   1.496  1.00  0.00    +0.134 C 
ATOM     16  S   UNL     1      20.182 -21.968  -0.085  1.00  0.00    -0.098 SA
ATOM     17  C   UNL     1      20.395 -22.164  -1.841  1.00  0.00    +0.051 A 
ENDROOT
BRANCH   1  18
ATOM     18  C   UNL     1      22.832 -22.763  -1.586  1.00  0.00    +0.015 C 
ATOM     19  C   UNL     1      24.019 -22.173  -1.794  1.00  0.00    +0.072 C 
BRANCH  19  20
ATOM     20  C   UNL     1      25.222 -22.467  -0.980  1.00  0.00    +0.243 C 
ATOM     21  N   UNL     1      25.407 -21.648   0.104  1.00  0.00    -0.356 N 
ATOM     22  O   UNL     1      25.998 -23.347  -1.331  1.00  0.00    -0.270 OA
ATOM     23  C   UNL     1      26.611 -21.729   0.890  1.00  0.00    +0.143 C 
ATOM     24  H   UNL     1      24.847 -20.809   0.175  1.00  0.00    +0.163 HD
ENDBRANCH  19  20
ENDBRANCH   1  18
BRANCH   3  25
ATOM     25  C   UNL     1      20.816 -22.428  -6.157  1.00  0.00    +0.416 C 
ATOM     26  F   UNL     1      20.718 -21.218  -6.771  1.00  0.00    -0.166 F 
ATOM     27  F   UNL     1      22.010 -22.953  -6.542  1.00  0.00    -0.166 F 
ATOM     28  F   UNL     1      19.860 -23.217  -6.721  1.00  0.00    -0.166 F 
ENDBRANCH   3  25
BRANCH  13  29
ATOM     29  C   UNL     1      17.573 -21.750   4.616  1.00  0.00    +0.088 C 
BRANCH  29  30
ATOM     30  C   UNL     1      16.819 -21.196   5.853  1.00  0.00    +0.003 C 
ATOM     31  C   UNL     1      15.578 -22.029   6.223  1.00  0.00    +0.005 C 
ATOM     32  C   UNL     1      16.517 -19.689   5.824  1.00  0.00    +0.005 C 
ATOM     33  C   UNL     1      14.303 -21.623   5.493  1.00  0.00    +0.000 C 
ATOM     34  C   UNL     1      15.204 -19.301   5.149  1.00  0.00    +0.000 C 
ATOM     35  C   UNL     1      14.030 -20.132   5.646  1.00  0.00    +0.000 C 
ENDBRANCH  29  30
ENDBRANCH  13  29
TORSDOF 5
ENDMDL
MODEL 6
REMARK VINA RESULT:    -8.096      5.348     10.216
REMARK INTER + INTRA:         -10.981
REMARK INTER:                 -10.216
REMARK INTRA:                  -0.765
REMARK UNBOUND:                -0.518
REMARK SMILES CNC(=O)/C=C/c1cc(C(F)(F)F)cc2c(=O)nc(N3CCN(CC4CCCCC4)CC3)sc12
REMARK SMILES IDX 7 1 8 2 9 3 14 4 15 5 16 6 17 7 18 8 19 9 20 10 21 11 22 12
REMARK SMILES IDX 23 13 31 14 32 15 33 16 34 17 6 18 5 19 3 20 2 21 4 22 1 23
REMARK SMILES IDX 10 25 11 26 12 27 13 28 24 29 25 30 26 31 30 32 27 33 29 34
REMARK SMILES IDX 28 35
REMARK H PARENT 2 24
ROOT
ATOM      1  C   UNL     1      22.939 -23.032  -0.487  1.00  0.00    -0.007 A 
ATOM      2  C   UNL     1      23.416 -23.358  -1.771  1.00  0.00    +0.022 A 
ATOM      3  C   UNL     1      22.576 -23.324  -2.894  1.00  0.00    +0.057 A 
ATOM      4  C   UNL     1      21.232 -22.983  -2.711  1.00  0.00    +0.028 A 
ATOM      5  C   UNL     1      20.740 -22.685  -1.429  1.00  0.00    +0.060 A 
ATOM      6  C   UNL     1      19.315 -22.324  -1.275  1.00  0.00    +0.281 C 
ATOM      7  O   UNL     1      18.747 -21.819  -2.238  1.00  0.00    -0.267 OA
ATOM      8  N   UNL     1      18.655 -22.638  -0.121  1.00  0.00    -0.181 NA
ATOM      9  C   UNL     1      19.215 -22.625   1.047  1.00  0.00    +0.189 C 
ATOM     10  N   UNL     1      18.484 -22.922   2.188  1.00  0.00    -0.345 N 
ATOM     11  C   UNL     1      19.086 -23.186   3.506  1.00  0.00    +0.134 C 
ATOM     12  C   UNL     1      18.036 -23.575   4.573  1.00  0.00    +0.106 C 
ATOM     13  N   UNL     1      16.839 -22.710   4.593  1.00  0.00    -0.300 NA
ATOM     14  C   UNL     1      16.221 -22.709   3.241  1.00  0.00    +0.106 C 
ATOM     15  C   UNL     1      17.064 -23.294   2.079  1.00  0.00    +0.134 C 
ATOM     16  S   UNL     1      20.916 -22.214   1.263  1.00  0.00    -0.098 SA
ATOM     17  C   UNL     1      21.578 -22.700  -0.315  1.00  0.00    +0.051 A 
ENDROOT
BRANCH   1  18
ATOM     18  C   UNL     1      23.877 -23.087   0.649  1.00  0.00    +0.015 C 
ATOM     19  C   UNL     1      24.707 -22.079   0.954  1.00  0.00    +0.072 C 
BRANCH  19  20
ATOM     20  C   UNL     1      25.668 -22.137   2.082  1.00  0.00    +0.243 C 
ATOM     21  N   UNL     1      25.172 -21.722   3.291  1.00  0.00    -0.356 N 
ATOM     22  O   UNL     1      26.828 -22.475   1.881  1.00  0.00    -0.270 OA
ATOM     23  C   UNL     1      26.039 -21.587   4.434  1.00  0.00    +0.143 C 
ATOM     24  H   UNL     1      24.283 -21.242   3.309  1.00  0.00    +0.163 HD
ENDBRANCH  19  20
ENDBRANCH   1  18
BRANCH   3  25
ATOM     25  C   UNL     1      23.103 -23.687  -4.262  1.00  0.00    +0.416 C 
ATOM     26  F   UNL     1      22.623 -22.860  -5.230  1.00  0.00    -0.166 F 
ATOM     27  F   UNL     1      24.460 -23.623  -4.346  1.00  0.00    -0.166 F 
ATOM     28  F   UNL     1      22.764 -24.950  -4.641  1.00  0.00    -0.166 F 
ENDBRANCH   3  25
BRANCH  13  29
ATOM     29  C   UNL     1      17.178 -21.346   5.036  1.00  0.00    +0.088 C 
BRANCH  29  30
ATOM     30  C   UNL     1      16.295 -20.758   6.166  1.00  0.00    +0.003 C 
ATOM     31  C   UNL     1      14.914 -21.434   6.264  1.00  0.00    +0.005 C 
ATOM     32  C   UNL     1      16.192 -19.224   6.196  1.00  0.00    +0.005 C 
ATOM     33  C   UNL     1      13.847 -20.823   5.364  1.00  0.00    +0.000 C 
ATOM     34  C   UNL     1      15.075 -18.629   5.343  1.00  0.00    +0.000 C 
ATOM     35  C   UNL     1      13.739 -19.319   5.576  1.00  0.00    +0.000 C 
ENDBRANCH  29  30
ENDBRANCH  13  29
TORSDOF 5
ENDMDL
MODEL 7
REMARK VINA RESULT:    -8.090      6.199      9.195
REMARK INTER + INTRA:         -10.973
REMARK INTER:                 -10.188
REMARK INTRA:                  -0.785
REMARK UNBOUND:                -0.518
REMARK SMILES CNC(=O)/C=C/c1cc(C(F)(F)F)cc2c(=O)nc(N3CCN(CC4CCCCC4)CC3)sc12
REMARK SMILES IDX 7 1 8 2 9 3 14 4 15 5 16 6 17 7 18 8 19 9 20 10 21 11 22 12
REMARK SMILES IDX 23 13 31 14 32 15 33 16 34 17 6 18 5 19 3 20 2 21 4 22 1 23
REMARK SMILES IDX 10 25 11 26 12 27 13 28 24 29 25 30 26 31 30 32 27 33 29 34
REMARK SMILES IDX 28 35
REMARK H PARENT 2 24
ROOT
ATOM      1  C   UNL     1      18.256 -21.572   1.586  1.00  0.00    -0.007 A 
ATOM      2  C   UNL     1      17.620 -20.820   0.581  1.00  0.00    +0.022 A 
ATOM      3  C   UNL     1      18.091 -20.817  -0.740  1.00  0.00    +0.057 A 
ATOM      4  C   UNL     1      19.237 -21.561  -1.041  1.00  0.00    +0.028 A 
ATOM      5  C   UNL     1      19.896 -22.292  -0.039  1.00  0.00    +0.060 A 
ATOM      6  C   UNL     1      21.100 -23.071  -0.394  1.00  0.00    +0.281 C 
ATOM      7  O   UNL     1      21.203 -23.465  -1.552  1.00  0.00    -0.267 OA
ATOM      8  N   UNL     1      22.091 -23.251   0.528  1.00  0.00    -0.181 NA
ATOM      9  C   UNL     1      21.868 -23.388   1.797  1.00  0.00    +0.189 C 
ATOM     10  N   UNL     1      22.916 -23.600   2.682  1.00  0.00    -0.345 N 
ATOM     11  C   UNL     1      22.787 -23.506   4.146  1.00  0.00    +0.134 C 
ATOM     12  C   UNL     1      24.135 -23.707   4.876  1.00  0.00    +0.106 C 
ATOM     13  N   UNL     1      24.926 -24.855   4.390  1.00  0.00    -0.300 NA
ATOM     14  C   UNL     1      25.151 -24.701   2.929  1.00  0.00    +0.106 C 
ATOM     15  C   UNL     1      24.303 -23.635   2.191  1.00  0.00    +0.134 C 
ATOM     16  S   UNL     1      20.240 -23.336   2.470  1.00  0.00    -0.098 SA
ATOM     17  C   UNL     1      19.418 -22.311   1.271  1.00  0.00    +0.051 A 
ENDROOT
BRANCH   1  18
ATOM     18  C   UNL     1      17.707 -21.531   2.953  1.00  0.00    +0.015 C 
ATOM     19  C   UNL     1      16.707 -20.711   3.308  1.00  0.00    +0.072 C 
BRANCH  19  20
ATOM     20  C   UNL     1      16.164 -20.647   4.686  1.00  0.00    +0.243 C 
ATOM     21  N   UNL     1      15.918 -21.863   5.272  1.00  0.00    -0.356 N 
ATOM     22  O   UNL     1      15.909 -19.563   5.195  1.00  0.00    -0.270 OA
ATOM     23  C   UNL     1      15.253 -21.944   6.547  1.00  0.00    +0.143 C 
ATOM     24  H   UNL     1      15.937 -22.690   4.691  1.00  0.00    +0.163 HD
ENDBRANCH  19  20
ENDBRANCH   1  18
BRANCH   3  25
ATOM     25  C   UNL     1      17.400 -19.996  -1.803  1.00  0.00    +0.416 C 
ATOM     26  F   UNL     1      17.704 -20.425  -3.058  1.00  0.00    -0.166 F 
ATOM     27  F   UNL     1      16.044 -20.031  -1.708  1.00  0.00    -0.166 F 
ATOM     28  F   UNL     1      17.745 -18.679  -1.760  1.00  0.00    -0.166 F 
ENDBRANCH   3  25
BRANCH  13  29
ATOM     29  C   UNL     1      24.259 -26.130   4.706  1.00  0.00    +0.088 C 
BRANCH  29  30
ATOM     30  C   UNL     1      25.187 -27.360   4.876  1.00  0.00    +0.003 C 
ATOM     31  C   UNL     1      24.524 -28.511   5.656  1.00  0.00    +0.005 C 
ATOM     32  C   UNL     1      26.604 -27.054   5.390  1.00  0.00    +0.005 C 
ATOM     33  C   UNL     1      24.674 -28.418   7.170  1.00  0.00    +0.000 C 
ATOM     34  C   UNL     1      26.755 -27.032   6.910  1.00  0.00    +0.000 C 
ATOM     35  C   UNL     1      26.133 -28.253   7.572  1.00  0.00    +0.000 C 
ENDBRANCH  29  30
ENDBRANCH  13  29
TORSDOF 5
ENDMDL
MODEL 8
REMARK VINA RESULT:    -8.090      5.759      8.735
REMARK INTER + INTRA:         -10.972
REMARK INTER:                 -10.131
REMARK INTRA:                  -0.841
REMARK UNBOUND:                -0.518
REMARK SMILES CNC(=O)/C=C/c1cc(C(F)(F)F)cc2c(=O)nc(N3CCN(CC4CCCCC4)CC3)sc12
REMARK SMILES IDX 7 1 8 2 9 3 14 4 15 5 16 6 17 7 18 8 19 9 20 10 21 11 22 12
REMARK SMILES IDX 23 13 31 14 32 15 33 16 34 17 6 18 5 19 3 20 2 21 4 22 1 23
REMARK SMILES IDX 10 25 11 26 12 27 13 28 24 29 25 30 26 31 30 32 27 33 29 34
REMARK SMILES IDX 28 35
REMARK H PARENT 2 24
ROOT
ATOM      1  C   UNL     1      19.260 -22.203  -1.665  1.00  0.00    -0.007 A 
ATOM      2  C   UNL     1      17.944 -21.997  -2.121  1.00  0.00    +0.022 A 
ATOM      3  C   UNL     1      16.853 -22.012  -1.239  1.00  0.00    +0.057 A 
ATOM      4  C   UNL     1      17.094 -22.268   0.115  1.00  0.00    +0.028 A 
ATOM      5  C   UNL     1      18.400 -22.504   0.574  1.00  0.00    +0.060 A 
ATOM      6  C   UNL     1      18.617 -22.766   2.012  1.00  0.00    +0.281 C 
ATOM      7  O   UNL     1      17.807 -22.297   2.806  1.00  0.00    -0.267 OA
ATOM      8  N   UNL     1      19.639 -23.580   2.409  1.00  0.00    -0.181 NA
ATOM      9  C   UNL     1      20.780 -23.641   1.799  1.00  0.00    +0.189 C 
ATOM     10  N   UNL     1      21.793 -24.466   2.270  1.00  0.00    -0.345 N 
ATOM     11  C   UNL     1      23.008 -24.794   1.506  1.00  0.00    +0.134 C 
ATOM     12  C   UNL     1      23.920 -25.803   2.241  1.00  0.00    +0.106 C 
ATOM     13  N   UNL     1      24.141 -25.495   3.669  1.00  0.00    -0.300 NA
ATOM     14  C   UNL     1      22.824 -25.400   4.352  1.00  0.00    +0.106 C 
ATOM     15  C   UNL     1      21.566 -25.313   3.451  1.00  0.00    +0.134 C 
ATOM     16  S   UNL     1      21.125 -22.678   0.365  1.00  0.00    -0.098 SA
ATOM     17  C   UNL     1      19.487 -22.470  -0.298  1.00  0.00    +0.051 A 
ENDROOT
BRANCH   1  18
ATOM     18  C   UNL     1      20.359 -22.172  -2.647  1.00  0.00    +0.015 C 
ATOM     19  C   UNL     1      20.149 -22.102  -3.970  1.00  0.00    +0.072 C 
BRANCH  19  20
ATOM     20  C   UNL     1      21.249 -22.092  -4.963  1.00  0.00    +0.243 C 
ATOM     21  N   UNL     1      21.583 -20.854  -5.450  1.00  0.00    -0.356 N 
ATOM     22  O   UNL     1      21.745 -23.147  -5.337  1.00  0.00    -0.270 OA
ATOM     23  C   UNL     1      22.530 -20.719  -6.528  1.00  0.00    +0.143 C 
ATOM     24  H   UNL     1      20.964 -20.078  -5.260  1.00  0.00    +0.163 HD
ENDBRANCH  19  20
ENDBRANCH   1  18
BRANCH   3  25
ATOM     25  C   UNL     1      15.447 -21.798  -1.749  1.00  0.00    +0.416 C 
ATOM     26  F   UNL     1      14.922 -20.619  -1.319  1.00  0.00    -0.166 F 
ATOM     27  F   UNL     1      15.368 -21.776  -3.107  1.00  0.00    -0.166 F 
ATOM     28  F   UNL     1      14.584 -22.768  -1.339  1.00  0.00    -0.166 F 
ENDBRANCH   3  25
BRANCH  13  29
ATOM     29  C   UNL     1      24.927 -24.259   3.829  1.00  0.00    +0.088 C 
BRANCH  29  30
ATOM     30  C   UNL     1      24.621 -23.417   5.094  1.00  0.00    +0.003 C 
ATOM     31  C   UNL     1      24.632 -21.900   4.826  1.00  0.00    +0.005 C 
ATOM     32  C   UNL     1      25.431 -23.788   6.348  1.00  0.00    +0.005 C 
ATOM     33  C   UNL     1      26.004 -21.247   4.946  1.00  0.00    +0.000 C 
ATOM     34  C   UNL     1      26.774 -23.075   6.491  1.00  0.00    +0.000 C 
ATOM     35  C   UNL     1      26.656 -21.572   6.283  1.00  0.00    +0.000 C 
ENDBRANCH  29  30
ENDBRANCH  13  29
TORSDOF 5
ENDMDL
MODEL 9
REMARK VINA RESULT:    -8.032      3.241      4.225
REMARK INTER + INTRA:         -10.898
REMARK INTER:                 -10.112
REMARK INTRA:                  -0.786
REMARK UNBOUND:                -0.518
REMARK SMILES CNC(=O)/C=C/c1cc(C(F)(F)F)cc2c(=O)nc(N3CCN(CC4CCCCC4)CC3)sc12
REMARK SMILES IDX 7 1 8 2 9 3 14 4 15 5 16 6 17 7 18 8 19 9 20 10 21 11 22 12
REMARK SMILES IDX 23 13 31 14 32 15 33 16 34 17 6 18 5 19 3 20 2 21 4 22 1 23
REMARK SMILES IDX 10 25 11 26 12 27 13 28 24 29 25 30 26 31 30 32 27 33 29 34
REMARK SMILES IDX 28 35
REMARK H PARENT 2 24
ROOT
ATOM      1  C   UNL     1      20.228 -22.556   1.034  1.00  0.00    -0.007 A 
ATOM      2  C   UNL     1      19.371 -22.345   2.131  1.00  0.00    +0.022 A 
ATOM      3  C   UNL     1      17.990 -22.169   1.956  1.00  0.00    +0.057 A 
ATOM      4  C   UNL     1      17.476 -22.176   0.656  1.00  0.00    +0.028 A 
ATOM      5  C   UNL     1      18.327 -22.356  -0.447  1.00  0.00    +0.060 A 
ATOM      6  C   UNL     1      17.748 -22.363  -1.806  1.00  0.00    +0.281 C 
ATOM      7  O   UNL     1      16.577 -22.710  -1.925  1.00  0.00    -0.267 OA
ATOM      8  N   UNL     1      18.484 -21.908  -2.862  1.00  0.00    -0.181 NA
ATOM      9  C   UNL     1      19.767 -22.063  -2.957  1.00  0.00    +0.189 C 
ATOM     10  N   UNL     1      20.456 -21.606  -4.071  1.00  0.00    -0.345 N 
ATOM     11  C   UNL     1      21.923 -21.504  -4.146  1.00  0.00    +0.134 C 
ATOM     12  C   UNL     1      22.410 -20.881  -5.475  1.00  0.00    +0.106 C 
ATOM     13  N   UNL     1      21.758 -21.432  -6.681  1.00  0.00    -0.300 NA
ATOM     14  C   UNL     1      20.286 -21.274  -6.548  1.00  0.00    +0.106 C 
ATOM     15  C   UNL     1      19.738 -20.902  -5.146  1.00  0.00    +0.134 C 
ATOM     16  S   UNL     1      20.705 -22.874  -1.705  1.00  0.00    -0.098 SA
ATOM     17  C   UNL     1      19.697 -22.551  -0.274  1.00  0.00    +0.051 A 
ENDROOT
BRANCH   1  18
ATOM     18  C   UNL     1      21.669 -22.736   1.289  1.00  0.00    +0.015 C 
ATOM     19  C   UNL     1      22.379 -21.900   2.061  1.00  0.00    +0.072 C 
BRANCH  19  20
ATOM     20  C   UNL     1      23.832 -22.062   2.305  1.00  0.00    +0.243 C 
ATOM     21  N   UNL     1      24.222 -21.924   3.613  1.00  0.00    -0.356 N 
ATOM     22  O   UNL     1      24.594 -22.240   1.364  1.00  0.00    -0.270 OA
ATOM     23  C   UNL     1      25.619 -21.910   3.965  1.00  0.00    +0.143 C 
ATOM     24  H   UNL     1      23.559 -21.546   4.276  1.00  0.00    +0.163 HD
ENDBRANCH  19  20
ENDBRANCH   1  18
BRANCH   3  25
ATOM     25  C   UNL     1      17.087 -21.934   3.145  1.00  0.00    +0.416 C 
ATOM     26  F   UNL     1      15.967 -22.705   3.095  1.00  0.00    -0.166 F 
ATOM     27  F   UNL     1      17.687 -22.212   4.334  1.00  0.00    -0.166 F 
ATOM     28  F   UNL     1      16.656 -20.646   3.234  1.00  0.00    -0.166 F 
ENDBRANCH   3  25
BRANCH  13  29
ATOM     29  C   UNL     1      22.136 -22.840  -6.891  1.00  0.00    +0.088 C 
BRANCH  29  30
ATOM     30  C   UNL     1      22.952 -23.141  -8.175  1.00  0.00    +0.003 C 
ATOM     31  C   UNL     1      24.474 -23.130  -7.938  1.00  0.00    +0.005 C 
ATOM     32  C   UNL     1      22.555 -22.328  -9.418  1.00  0.00    +0.005 C 
ATOM     33  C   UNL     1      25.124 -21.757  -8.067  1.00  0.00    +0.000 C 
ATOM     34  C   UNL     1      23.264 -20.984  -9.572  1.00  0.00    +0.000 C 
ATOM     35  C   UNL     1      24.771 -21.102  -9.395  1.00  0.00    +0.000 C 
ENDBRANCH  29  30
ENDBRANCH  13  29
TORSDOF 5
ENDMDL
