MODEL 1
REMARK VINA RESULT:   -10.026      0.000      0.000
REMARK INTER + INTRA:         -14.228
REMARK INTER:                 -12.956
REMARK INTRA:                  -1.272
REMARK UNBOUND:                -1.272
REMARK SMILES CC1(c2ccc(C#N)cc2)NC(=O)N(CC(=O)c2ccc(F)c(C(F)(F)F)c2)C1=O
REMARK SMILES IDX 16 1 17 2 15 3 14 4 2 5 11 6 29 7 12 8 30 9 13 10 1 11 3 13
REMARK SMILES IDX 4 14 10 15 5 16 9 17 6 18 7 19 8 20 18 21 19 22 28 23 20 24
REMARK SMILES IDX 23 25 21 26 22 27 24 28 25 29 26 30 27 31
REMARK H PARENT 11 12
ROOT
ATOM      1  C   UNL     1      15.805 -18.334   0.761  1.00  0.00    +0.182 C 
ATOM      2  O   UNL     1      16.169 -17.166   0.637  1.00  0.00    -0.292 OA
ENDROOT
BRANCH   1   3
ATOM      3  C   UNL     1      15.606 -19.264  -0.432  1.00  0.00    +0.211 C 
BRANCH   3   4
ATOM      4  N   UNL     1      16.818 -19.896  -0.909  1.00  0.00    -0.254 N 
ATOM      5  C   UNL     1      18.520 -21.492  -1.358  1.00  0.00    +0.144 C 
ATOM      6  N   UNL     1      18.820 -20.155  -1.827  1.00  0.00    -0.319 N 
ATOM      7  C   UNL     1      17.090 -21.233  -0.815  1.00  0.00    +0.261 C 
ATOM      8  C   UNL     1      17.851 -19.242  -1.497  1.00  0.00    +0.325 C 
ATOM      9  O   UNL     1      16.334 -22.074  -0.345  1.00  0.00    -0.271 OA
ATOM     10  O   UNL     1      17.947 -18.044  -1.693  1.00  0.00    -0.248 OA
ATOM     11  C   UNL     1      18.477 -22.464  -2.535  1.00  0.00    +0.051 C 
ATOM     12  H   UNL     1      19.684 -19.862  -2.264  1.00  0.00    +0.166 HD
BRANCH   5  13
ATOM     13  C   UNL     1      19.461 -21.956  -0.244  1.00  0.00    -0.013 A 
ATOM     14  C   UNL     1      20.469 -22.899  -0.523  1.00  0.00    +0.008 A 
ATOM     15  C   UNL     1      19.366 -21.475   1.075  1.00  0.00    +0.008 A 
ATOM     16  C   UNL     1      21.340 -23.350   0.475  1.00  0.00    +0.020 A 
ATOM     17  C   UNL     1      20.236 -21.926   2.075  1.00  0.00    +0.020 A 
ATOM     18  C   UNL     1      21.225 -22.865   1.779  1.00  0.00    +0.052 A 
ATOM     19  C   UNL     1      22.114 -23.330   2.802  1.00  0.00    +0.099 C 
ATOM     20  N   UNL     1      22.842 -23.706   3.624  1.00  0.00    -0.192 NA
ENDBRANCH   5  13
ENDBRANCH   3   4
ENDBRANCH   1   3
BRANCH   1  21
ATOM     21  C   UNL     1      15.539 -18.831   2.124  1.00  0.00    +0.020 A 
ATOM     22  C   UNL     1      16.315 -19.879   2.624  1.00  0.00    +0.015 A 
ATOM     23  C   UNL     1      14.527 -18.250   2.895  1.00  0.00    +0.028 A 
ATOM     24  C   UNL     1      16.092 -20.332   3.923  1.00  0.00    +0.040 A 
ATOM     25  C   UNL     1      14.302 -18.707   4.204  1.00  0.00    +0.092 A 
ATOM     26  C   UNL     1      15.096 -19.741   4.700  1.00  0.00    +0.135 A 
ATOM     27  F   UNL     1      14.918 -20.175   5.955  1.00  0.00    -0.206 F 
BRANCH  25  28
ATOM     28  C   UNL     1      13.258 -18.097   5.091  1.00  0.00    +0.419 C 
ATOM     29  F   UNL     1      13.763 -17.570   6.238  1.00  0.00    -0.166 F 
ATOM     30  F   UNL     1      12.579 -17.090   4.472  1.00  0.00    -0.166 F 
ATOM     31  F   UNL     1      12.306 -18.989   5.484  1.00  0.00    -0.166 F 
ENDBRANCH  25  28
ENDBRANCH   1  21
TORSDOF 5
ENDMDL
MODEL 2
REMARK VINA RESULT:    -9.851      1.028      2.242
REMARK INTER + INTRA:         -14.003
REMARK INTER:                 -12.463
REMARK INTRA:                  -1.539
REMARK UNBOUND:                -1.272
REMARK SMILES CC1(c2ccc(C#N)cc2)NC(=O)N(CC(=O)c2ccc(F)c(C(F)(F)F)c2)C1=O
REMARK SMILES IDX 16 1 17 2 15 3 14 4 2 5 11 6 29 7 12 8 30 9 13 10 1 11 3 13
REMARK SMILES IDX 4 14 10 15 5 16 9 17 6 18 7 19 8 20 18 21 19 22 28 23 20 24
REMARK SMILES IDX 23 25 21 26 22 27 24 28 25 29 26 30 27 31
REMARK H PARENT 11 12
ROOT
ATOM      1  C   UNL     1      15.770 -18.406   0.826  1.00  0.00    +0.182 C 
ATOM      2  O   UNL     1      16.191 -17.266   0.643  1.00  0.00    -0.292 OA
ENDROOT
BRANCH   1   3
ATOM      3  C   UNL     1      15.517 -19.382  -0.319  1.00  0.00    +0.211 C 
BRANCH   3   4
ATOM      4  N   UNL     1      16.711 -20.004  -0.852  1.00  0.00    -0.254 N 
ATOM      5  C   UNL     1      18.426 -21.574  -1.342  1.00  0.00    +0.144 C 
ATOM      6  N   UNL     1      18.647 -20.256  -1.903  1.00  0.00    -0.319 N 
ATOM      7  C   UNL     1      17.032 -21.326  -0.708  1.00  0.00    +0.261 C 
ATOM      8  C   UNL     1      17.676 -19.355  -1.549  1.00  0.00    +0.325 C 
ATOM      9  O   UNL     1      16.340 -22.161  -0.139  1.00  0.00    -0.271 OA
ATOM     10  O   UNL     1      17.719 -18.167  -1.816  1.00  0.00    -0.248 OA
ATOM     11  C   UNL     1      18.328 -22.610  -2.460  1.00  0.00    +0.051 C 
ATOM     12  H   UNL     1      19.467 -19.964  -2.419  1.00  0.00    +0.166 HD
BRANCH   5  13
ATOM     13  C   UNL     1      19.461 -21.948  -0.279  1.00  0.00    -0.013 A 
ATOM     14  C   UNL     1      20.563 -22.754  -0.625  1.00  0.00    +0.008 A 
ATOM     15  C   UNL     1      19.363 -21.518   1.057  1.00  0.00    +0.008 A 
ATOM     16  C   UNL     1      21.522 -23.122   0.325  1.00  0.00    +0.020 A 
ATOM     17  C   UNL     1      20.321 -21.886   2.008  1.00  0.00    +0.020 A 
ATOM     18  C   UNL     1      21.403 -22.690   1.646  1.00  0.00    +0.052 A 
ATOM     19  C   UNL     1      22.383 -23.070   2.621  1.00  0.00    +0.099 C 
ATOM     20  N   UNL     1      23.184 -23.376   3.402  1.00  0.00    -0.192 NA
ENDBRANCH   5  13
ENDBRANCH   3   4
ENDBRANCH   1   3
BRANCH   1  21
ATOM     21  C   UNL     1      15.489 -18.822   2.213  1.00  0.00    +0.020 A 
ATOM     22  C   UNL     1      14.453 -18.195   2.909  1.00  0.00    +0.015 A 
ATOM     23  C   UNL     1      16.251 -19.832   2.809  1.00  0.00    +0.028 A 
ATOM     24  C   UNL     1      14.160 -18.605   4.209  1.00  0.00    +0.040 A 
ATOM     25  C   UNL     1      15.956 -20.245   4.118  1.00  0.00    +0.092 A 
ATOM     26  C   UNL     1      14.906 -19.625   4.797  1.00  0.00    +0.135 A 
ATOM     27  F   UNL     1      14.589 -20.020   6.037  1.00  0.00    -0.206 F 
BRANCH  25  28
ATOM     28  C   UNL     1      16.713 -21.349   4.793  1.00  0.00    +0.419 C 
ATOM     29  F   UNL     1      17.703 -21.875   4.025  1.00  0.00    -0.166 F 
ATOM     30  F   UNL     1      17.304 -20.937   5.951  1.00  0.00    -0.166 F 
ATOM     31  F   UNL     1      15.921 -22.401   5.144  1.00  0.00    -0.166 F 
ENDBRANCH  25  28
ENDBRANCH   1  21
TORSDOF 5
ENDMDL
MODEL 3
REMARK VINA RESULT:    -9.553      0.977      2.074
REMARK INTER + INTRA:         -13.617
REMARK INTER:                 -12.871
REMARK INTRA:                  -0.746
REMARK UNBOUND:                -1.272
REMARK SMILES CC1(c2ccc(C#N)cc2)NC(=O)N(CC(=O)c2ccc(F)c(C(F)(F)F)c2)C1=O
REMARK SMILES IDX 16 1 17 2 15 3 14 4 2 5 11 6 29 7 12 8 30 9 13 10 1 11 3 13
REMARK SMILES IDX 4 14 10 15 5 16 9 17 6 18 7 19 8 20 18 21 19 22 28 23 20 24
REMARK SMILES IDX 23 25 21 26 22 27 24 28 25 29 26 30 27 31
REMARK H PARENT 11 12
ROOT
ATOM      1  C   UNL     1      16.122 -19.037   1.576  1.00  0.00    +0.182 C 
ATOM      2  O   UNL     1      17.207 -19.317   2.081  1.00  0.00    -0.292 OA
ENDROOT
BRANCH   1   3
ATOM      3  C   UNL     1      15.803 -19.311   0.109  1.00  0.00    +0.211 C 
BRANCH   3   4
ATOM      4  N   UNL     1      16.875 -19.947  -0.629  1.00  0.00    -0.254 N 
ATOM      5  C   UNL     1      18.423 -21.551  -1.451  1.00  0.00    +0.144 C 
ATOM      6  N   UNL     1      18.618 -20.213  -1.972  1.00  0.00    -0.319 N 
ATOM      7  C   UNL     1      17.153 -21.286  -0.601  1.00  0.00    +0.261 C 
ATOM      8  C   UNL     1      17.753 -19.297  -1.431  1.00  0.00    +0.325 C 
ATOM      9  O   UNL     1      16.516 -22.125   0.025  1.00  0.00    -0.271 OA
ATOM     10  O   UNL     1      17.809 -18.098  -1.642  1.00  0.00    -0.248 OA
ATOM     11  C   UNL     1      18.112 -22.518  -2.590  1.00  0.00    +0.051 C 
ATOM     12  H   UNL     1      19.364 -19.923  -2.591  1.00  0.00    +0.166 HD
BRANCH   5  13
ATOM     13  C   UNL     1      19.588 -22.022  -0.577  1.00  0.00    -0.013 A 
ATOM     14  C   UNL     1      19.624 -21.681   0.789  1.00  0.00    +0.008 A 
ATOM     15  C   UNL     1      20.648 -22.797  -1.083  1.00  0.00    +0.008 A 
ATOM     16  C   UNL     1      20.680 -22.087   1.612  1.00  0.00    +0.020 A 
ATOM     17  C   UNL     1      21.705 -23.203  -0.260  1.00  0.00    +0.020 A 
ATOM     18  C   UNL     1      21.725 -22.850   1.089  1.00  0.00    +0.052 A 
ATOM     19  C   UNL     1      22.808 -23.263   1.932  1.00  0.00    +0.099 C 
ATOM     20  N   UNL     1      23.678 -23.600   2.622  1.00  0.00    -0.192 NA
ENDBRANCH   5  13
ENDBRANCH   3   4
ENDBRANCH   1   3
BRANCH   1  21
ATOM     21  C   UNL     1      15.108 -18.397   2.434  1.00  0.00    +0.020 A 
ATOM     22  C   UNL     1      14.398 -17.300   1.939  1.00  0.00    +0.015 A 
ATOM     23  C   UNL     1      14.867 -18.891   3.721  1.00  0.00    +0.028 A 
ATOM     24  C   UNL     1      13.416 -16.710   2.732  1.00  0.00    +0.040 A 
ATOM     25  C   UNL     1      13.877 -18.296   4.520  1.00  0.00    +0.092 A 
ATOM     26  C   UNL     1      13.161 -17.214   4.007  1.00  0.00    +0.135 A 
ATOM     27  F   UNL     1      12.194 -16.647   4.740  1.00  0.00    -0.206 F 
BRANCH  25  28
ATOM     28  C   UNL     1      13.549 -18.806   5.890  1.00  0.00    +0.419 C 
ATOM     29  F   UNL     1      12.254 -18.599   6.249  1.00  0.00    -0.166 F 
ATOM     30  F   UNL     1      13.770 -20.147   6.009  1.00  0.00    -0.166 F 
ATOM     31  F   UNL     1      14.299 -18.226   6.869  1.00  0.00    -0.166 F 
ENDBRANCH  25  28
ENDBRANCH   1  21
TORSDOF 5
ENDMDL
MODEL 4
REMARK VINA RESULT:    -9.337      2.633      5.624
REMARK INTER + INTRA:         -13.339
REMARK INTER:                 -11.448
REMARK INTRA:                  -1.890
REMARK UNBOUND:                -1.272
REMARK SMILES CC1(c2ccc(C#N)cc2)NC(=O)N(CC(=O)c2ccc(F)c(C(F)(F)F)c2)C1=O
REMARK SMILES IDX 16 1 17 2 15 3 14 4 2 5 11 6 29 7 12 8 30 9 13 10 1 11 3 13
REMARK SMILES IDX 4 14 10 15 5 16 9 17 6 18 7 19 8 20 18 21 19 22 28 23 20 24
REMARK SMILES IDX 23 25 21 26 22 27 24 28 25 29 26 30 27 31
REMARK H PARENT 11 12
ROOT
ATOM      1  C   UNL     1      17.319 -23.588   1.634  1.00  0.00    +0.182 C 
ATOM      2  O   UNL     1      16.884 -24.731   1.510  1.00  0.00    -0.292 OA
ENDROOT
BRANCH   1   3
ATOM      3  C   UNL     1      17.939 -22.815   0.474  1.00  0.00    +0.211 C 
BRANCH   3   4
ATOM      4  N   UNL     1      17.252 -21.586   0.137  1.00  0.00    -0.254 N 
ATOM      5  C   UNL     1      16.567 -19.312   0.079  1.00  0.00    +0.144 C 
ATOM      6  N   UNL     1      15.789 -20.189  -0.772  1.00  0.00    -0.319 N 
ATOM      7  C   UNL     1      17.599 -20.347   0.598  1.00  0.00    +0.261 C 
ATOM      8  C   UNL     1      16.164 -21.504  -0.669  1.00  0.00    +0.325 C 
ATOM      9  O   UNL     1      18.552 -20.109   1.331  1.00  0.00    -0.271 OA
ATOM     10  O   UNL     1      15.577 -22.426  -1.208  1.00  0.00    -0.248 OA
ATOM     11  C   UNL     1      17.260 -18.242  -0.762  1.00  0.00    +0.051 C 
ATOM     12  H   UNL     1      14.983 -19.919  -1.320  1.00  0.00    +0.166 HD
BRANCH   5  13
ATOM     13  C   UNL     1      15.748 -18.720   1.229  1.00  0.00    -0.013 A 
ATOM     14  C   UNL     1      15.726 -19.364   2.481  1.00  0.00    +0.008 A 
ATOM     15  C   UNL     1      14.997 -17.537   1.091  1.00  0.00    +0.008 A 
ATOM     16  C   UNL     1      14.979 -18.855   3.548  1.00  0.00    +0.020 A 
ATOM     17  C   UNL     1      14.249 -17.027   2.159  1.00  0.00    +0.020 A 
ATOM     18  C   UNL     1      14.237 -17.684   3.390  1.00  0.00    +0.052 A 
ATOM     19  C   UNL     1      13.469 -17.164   4.482  1.00  0.00    +0.099 C 
ATOM     20  N   UNL     1      12.855 -16.745   5.374  1.00  0.00    -0.192 NA
ENDBRANCH   5  13
ENDBRANCH   3   4
ENDBRANCH   1   3
BRANCH   1  21
ATOM     21  C   UNL     1      17.244 -22.964   2.968  1.00  0.00    +0.020 A 
ATOM     22  C   UNL     1      18.429 -22.604   3.613  1.00  0.00    +0.015 A 
ATOM     23  C   UNL     1      15.999 -22.737   3.566  1.00  0.00    +0.028 A 
ATOM     24  C   UNL     1      18.365 -21.983   4.859  1.00  0.00    +0.040 A 
ATOM     25  C   UNL     1      15.935 -22.113   4.822  1.00  0.00    +0.092 A 
ATOM     26  C   UNL     1      17.125 -21.739   5.448  1.00  0.00    +0.135 A 
ATOM     27  F   UNL     1      17.087 -21.118   6.633  1.00  0.00    -0.206 F 
BRANCH  25  28
ATOM     28  C   UNL     1      14.629 -21.809   5.493  1.00  0.00    +0.419 C 
ATOM     29  F   UNL     1      14.436 -20.483   5.726  1.00  0.00    -0.166 F 
ATOM     30  F   UNL     1      13.561 -22.229   4.757  1.00  0.00    -0.166 F 
ATOM     31  F   UNL     1      14.499 -22.419   6.704  1.00  0.00    -0.166 F 
ENDBRANCH  25  28
ENDBRANCH   1  21
TORSDOF 5
ENDMDL
MODEL 5
REMARK VINA RESULT:    -9.334      3.752      6.730
REMARK INTER + INTRA:         -13.334
REMARK INTER:                 -11.134
REMARK INTRA:                  -2.200
REMARK UNBOUND:                -1.272
REMARK SMILES CC1(c2ccc(C#N)cc2)NC(=O)N(CC(=O)c2ccc(F)c(C(F)(F)F)c2)C1=O
REMARK SMILES IDX 16 1 17 2 15 3 14 4 2 5 11 6 29 7 12 8 30 9 13 10 1 11 3 13
REMARK SMILES IDX 4 14 10 15 5 16 9 17 6 18 7 19 8 20 18 21 19 22 28 23 20 24
REMARK SMILES IDX 23 25 21 26 22 27 24 28 25 29 26 30 27 31
REMARK H PARENT 11 12
ROOT
ATOM      1  C   UNL     1      19.622 -23.440  -1.010  1.00  0.00    +0.182 C 
ATOM      2  O   UNL     1      20.437 -23.650  -1.905  1.00  0.00    -0.292 OA
ENDROOT
BRANCH   1   3
ATOM      3  C   UNL     1      19.522 -24.318   0.234  1.00  0.00    +0.211 C 
BRANCH   3   4
ATOM      4  N   UNL     1      19.273 -23.592   1.462  1.00  0.00    -0.254 N 
ATOM      5  C   UNL     1      18.201 -22.631   3.352  1.00  0.00    +0.144 C 
ATOM      6  N   UNL     1      19.601 -22.283   3.221  1.00  0.00    -0.319 N 
ATOM      7  C   UNL     1      18.088 -23.599   2.145  1.00  0.00    +0.261 C 
ATOM      8  C   UNL     1      20.176 -22.798   2.088  1.00  0.00    +0.325 C 
ATOM      9  O   UNL     1      17.095 -24.241   1.826  1.00  0.00    -0.271 OA
ATOM     10  O   UNL     1      21.310 -22.542   1.721  1.00  0.00    -0.248 OA
ATOM     11  C   UNL     1      17.966 -23.381   4.662  1.00  0.00    +0.051 C 
ATOM     12  H   UNL     1      20.111 -21.649   3.822  1.00  0.00    +0.166 HD
BRANCH   5  13
ATOM     13  C   UNL     1      17.272 -21.426   3.186  1.00  0.00    -0.013 A 
ATOM     14  C   UNL     1      16.313 -21.137   4.177  1.00  0.00    +0.008 A 
ATOM     15  C   UNL     1      17.330 -20.574   2.068  1.00  0.00    +0.008 A 
ATOM     16  C   UNL     1      15.442 -20.050   4.051  1.00  0.00    +0.020 A 
ATOM     17  C   UNL     1      16.459 -19.486   1.940  1.00  0.00    +0.020 A 
ATOM     18  C   UNL     1      15.512 -19.220   2.930  1.00  0.00    +0.052 A 
ATOM     19  C   UNL     1      14.618 -18.108   2.800  1.00  0.00    +0.099 C 
ATOM     20  N   UNL     1      13.895 -17.205   2.704  1.00  0.00    -0.192 NA
ENDBRANCH   5  13
ENDBRANCH   3   4
ENDBRANCH   1   3
BRANCH   1  21
ATOM     21  C   UNL     1      18.701 -22.299  -1.171  1.00  0.00    +0.020 A 
ATOM     22  C   UNL     1      19.213 -21.002  -1.094  1.00  0.00    +0.015 A 
ATOM     23  C   UNL     1      17.340 -22.525  -1.402  1.00  0.00    +0.028 A 
ATOM     24  C   UNL     1      18.355 -19.919  -1.278  1.00  0.00    +0.040 A 
ATOM     25  C   UNL     1      16.475 -21.434  -1.586  1.00  0.00    +0.092 A 
ATOM     26  C   UNL     1      17.002 -20.143  -1.527  1.00  0.00    +0.135 A 
ATOM     27  F   UNL     1      16.202 -19.088  -1.727  1.00  0.00    -0.206 F 
BRANCH  25  28
ATOM     28  C   UNL     1      15.016 -21.616  -1.876  1.00  0.00    +0.419 C 
ATOM     29  F   UNL     1      14.717 -21.572  -3.201  1.00  0.00    -0.166 F 
ATOM     30  F   UNL     1      14.543 -22.809  -1.415  1.00  0.00    -0.166 F 
ATOM     31  F   UNL     1      14.235 -20.665  -1.290  1.00  0.00    -0.166 F 
ENDBRANCH  25  28
ENDBRANCH   1  21
TORSDOF 5
ENDMDL
MODEL 6
REMARK VINA RESULT:    -9.301      2.148      3.067
REMARK INTER + INTRA:         -13.291
REMARK INTER:                 -12.404
REMARK INTRA:                  -0.888
REMARK UNBOUND:                -1.272
REMARK SMILES CC1(c2ccc(C#N)cc2)NC(=O)N(CC(=O)c2ccc(F)c(C(F)(F)F)c2)C1=O
REMARK SMILES IDX 16 1 17 2 15 3 14 4 2 5 11 6 29 7 12 8 30 9 13 10 1 11 3 13
REMARK SMILES IDX 4 14 10 15 5 16 9 17 6 18 7 19 8 20 18 21 19 22 28 23 20 24
REMARK SMILES IDX 23 25 21 26 22 27 24 28 25 29 26 30 27 31
REMARK H PARENT 11 12
ROOT
ATOM      1  C   UNL     1      15.891 -18.300   1.391  1.00  0.00    +0.182 C 
ATOM      2  O   UNL     1      15.386 -17.501   0.605  1.00  0.00    -0.292 OA
ENDROOT
BRANCH   1   3
ATOM      3  C   UNL     1      17.205 -19.020   1.101  1.00  0.00    +0.211 C 
BRANCH   3   4
ATOM      4  N   UNL     1      17.263 -19.663  -0.195  1.00  0.00    -0.254 N 
ATOM      5  C   UNL     1      17.253 -21.298  -1.919  1.00  0.00    +0.144 C 
ATOM      6  N   UNL     1      17.544 -19.953  -2.375  1.00  0.00    -0.319 N 
ATOM      7  C   UNL     1      16.993 -20.984  -0.422  1.00  0.00    +0.261 C 
ATOM      8  C   UNL     1      17.608 -19.044  -1.351  1.00  0.00    +0.325 C 
ATOM      9  O   UNL     1      16.639 -21.788   0.432  1.00  0.00    -0.271 OA
ATOM     10  O   UNL     1      17.946 -17.881  -1.491  1.00  0.00    -0.248 OA
ATOM     11  C   UNL     1      15.980 -21.814  -2.586  1.00  0.00    +0.051 C 
ATOM     12  H   UNL     1      17.781 -19.689  -3.322  1.00  0.00    +0.166 HD
BRANCH   5  13
ATOM     13  C   UNL     1      18.438 -22.252  -2.090  1.00  0.00    -0.013 A 
ATOM     14  C   UNL     1      19.112 -22.320  -3.324  1.00  0.00    +0.008 A 
ATOM     15  C   UNL     1      18.896 -23.082  -1.050  1.00  0.00    +0.008 A 
ATOM     16  C   UNL     1      20.191 -23.189  -3.516  1.00  0.00    +0.020 A 
ATOM     17  C   UNL     1      19.976 -23.952  -1.241  1.00  0.00    +0.020 A 
ATOM     18  C   UNL     1      20.627 -24.009  -2.474  1.00  0.00    +0.052 A 
ATOM     19  C   UNL     1      21.731 -24.901  -2.671  1.00  0.00    +0.099 C 
ATOM     20  N   UNL     1      22.630 -25.616  -2.837  1.00  0.00    -0.192 NA
ENDBRANCH   5  13
ENDBRANCH   3   4
ENDBRANCH   1   3
BRANCH   1  21
ATOM     21  C   UNL     1      15.174 -18.574   2.650  1.00  0.00    +0.020 A 
ATOM     22  C   UNL     1      14.255 -17.633   3.122  1.00  0.00    +0.015 A 
ATOM     23  C   UNL     1      15.415 -19.761   3.350  1.00  0.00    +0.028 A 
ATOM     24  C   UNL     1      13.549 -17.900   4.295  1.00  0.00    +0.040 A 
ATOM     25  C   UNL     1      14.704 -20.029   4.531  1.00  0.00    +0.092 A 
ATOM     26  C   UNL     1      13.774 -19.091   4.982  1.00  0.00    +0.135 A 
ATOM     27  F   UNL     1      13.065 -19.337   6.091  1.00  0.00    -0.206 F 
BRANCH  25  28
ATOM     28  C   UNL     1      14.892 -21.301   5.301  1.00  0.00    +0.419 C 
ATOM     29  F   UNL     1      15.306 -21.103   6.581  1.00  0.00    -0.166 F 
ATOM     30  F   UNL     1      13.744 -22.033   5.377  1.00  0.00    -0.166 F 
ATOM     31  F   UNL     1      15.816 -22.131   4.741  1.00  0.00    -0.166 F 
ENDBRANCH  25  28
ENDBRANCH   1  21
TORSDOF 5
ENDMDL
MODEL 7
REMARK VINA RESULT:    -9.280      2.188      2.768
REMARK INTER + INTRA:         -13.265
REMARK INTER:                 -12.417
REMARK INTRA:                  -0.848
REMARK UNBOUND:                -1.272
REMARK SMILES CC1(c2ccc(C#N)cc2)NC(=O)N(CC(=O)c2ccc(F)c(C(F)(F)F)c2)C1=O
REMARK SMILES IDX 16 1 17 2 15 3 14 4 2 5 11 6 29 7 12 8 30 9 13 10 1 11 3 13
REMARK SMILES IDX 4 14 10 15 5 16 9 17 6 18 7 19 8 20 18 21 19 22 28 23 20 24
REMARK SMILES IDX 23 25 21 26 22 27 24 28 25 29 26 30 27 31
REMARK H PARENT 11 12
ROOT
ATOM      1  C   UNL     1      16.292 -18.765   1.547  1.00  0.00    +0.182 C 
ATOM      2  O   UNL     1      15.719 -17.874   0.925  1.00  0.00    -0.292 OA
ENDROOT
BRANCH   1   3
ATOM      3  C   UNL     1      17.606 -19.382   1.077  1.00  0.00    +0.211 C 
BRANCH   3   4
ATOM      4  N   UNL     1      17.556 -19.959  -0.250  1.00  0.00    -0.254 N 
ATOM      5  C   UNL     1      17.461 -21.510  -2.048  1.00  0.00    +0.144 C 
ATOM      6  N   UNL     1      17.596 -20.127  -2.460  1.00  0.00    -0.319 N 
ATOM      7  C   UNL     1      17.359 -21.286  -0.516  1.00  0.00    +0.261 C 
ATOM      8  C   UNL     1      17.714 -19.263  -1.403  1.00  0.00    +0.325 C 
ATOM      9  O   UNL     1      17.169 -22.154   0.328  1.00  0.00    -0.271 OA
ATOM     10  O   UNL     1      17.947 -18.072  -1.517  1.00  0.00    -0.248 OA
ATOM     11  C   UNL     1      16.159 -22.095  -2.590  1.00  0.00    +0.051 C 
ATOM     12  H   UNL     1      17.698 -19.802  -3.413  1.00  0.00    +0.166 HD
BRANCH   5  13
ATOM     13  C   UNL     1      18.684 -22.358  -2.406  1.00  0.00    -0.013 A 
ATOM     14  C   UNL     1      19.106 -22.451  -3.746  1.00  0.00    +0.008 A 
ATOM     15  C   UNL     1      19.422 -23.065  -1.439  1.00  0.00    +0.008 A 
ATOM     16  C   UNL     1      20.213 -23.226  -4.107  1.00  0.00    +0.020 A 
ATOM     17  C   UNL     1      20.530 -23.841  -1.800  1.00  0.00    +0.020 A 
ATOM     18  C   UNL     1      20.929 -23.925  -3.134  1.00  0.00    +0.052 A 
ATOM     19  C   UNL     1      22.061 -24.721  -3.505  1.00  0.00    +0.099 C 
ATOM     20  N   UNL     1      22.981 -25.358  -3.812  1.00  0.00    -0.192 NA
ENDBRANCH   5  13
ENDBRANCH   3   4
ENDBRANCH   1   3
BRANCH   1  21
ATOM     21  C   UNL     1      15.659 -19.256   2.786  1.00  0.00    +0.020 A 
ATOM     22  C   UNL     1      16.103 -20.458   3.341  1.00  0.00    +0.015 A 
ATOM     23  C   UNL     1      14.634 -18.518   3.388  1.00  0.00    +0.028 A 
ATOM     24  C   UNL     1      15.532 -20.912   4.529  1.00  0.00    +0.040 A 
ATOM     25  C   UNL     1      14.058 -18.976   4.584  1.00  0.00    +0.092 A 
ATOM     26  C   UNL     1      14.524 -20.168   5.141  1.00  0.00    +0.135 A 
ATOM     27  F   UNL     1      14.010 -20.610   6.295  1.00  0.00    -0.206 F 
BRANCH  25  28
ATOM     28  C   UNL     1      12.985 -18.208   5.295  1.00  0.00    +0.419 C 
ATOM     29  F   UNL     1      12.636 -17.055   4.664  1.00  0.00    -0.166 F 
ATOM     30  F   UNL     1      11.837 -18.932   5.433  1.00  0.00    -0.166 F 
ATOM     31  F   UNL     1      13.339 -17.843   6.559  1.00  0.00    -0.166 F 
ENDBRANCH  25  28
ENDBRANCH   1  21
TORSDOF 5
ENDMDL
MODEL 8
REMARK VINA RESULT:    -9.095      2.513      3.304
REMARK INTER + INTRA:         -13.026
REMARK INTER:                 -11.770
REMARK INTRA:                  -1.256
REMARK UNBOUND:                -1.272
REMARK SMILES CC1(c2ccc(C#N)cc2)NC(=O)N(CC(=O)c2ccc(F)c(C(F)(F)F)c2)C1=O
REMARK SMILES IDX 16 1 17 2 15 3 14 4 2 5 11 6 29 7 12 8 30 9 13 10 1 11 3 13
REMARK SMILES IDX 4 14 10 15 5 16 9 17 6 18 7 19 8 20 18 21 19 22 28 23 20 24
REMARK SMILES IDX 23 25 21 26 22 27 24 28 25 29 26 30 27 31
REMARK H PARENT 11 12
ROOT
ATOM      1  C   UNL     1      16.307 -18.968   1.067  1.00  0.00    +0.182 C 
ATOM      2  O   UNL     1      15.918 -18.305   0.108  1.00  0.00    -0.292 OA
ENDROOT
BRANCH   1   3
ATOM      3  C   UNL     1      17.487 -19.931   0.977  1.00  0.00    +0.211 C 
BRANCH   3   4
ATOM      4  N   UNL     1      17.195 -21.172   0.290  1.00  0.00    -0.254 N 
ATOM      5  C   UNL     1      16.678 -23.446  -0.165  1.00  0.00    +0.144 C 
ATOM      6  N   UNL     1      16.928 -22.645  -1.346  1.00  0.00    -0.319 N 
ATOM      7  C   UNL     1      16.803 -22.330   0.904  1.00  0.00    +0.261 C 
ATOM      8  C   UNL     1      17.288 -21.355  -1.050  1.00  0.00    +0.325 C 
ATOM      9  O   UNL     1      16.617 -22.461   2.108  1.00  0.00    -0.271 OA
ATOM     10  O   UNL     1      17.649 -20.540  -1.881  1.00  0.00    -0.248 OA
ATOM     11  C   UNL     1      15.254 -23.998  -0.197  1.00  0.00    +0.051 C 
ATOM     12  H   UNL     1      16.946 -22.986  -2.298  1.00  0.00    +0.166 HD
BRANCH   5  13
ATOM     13  C   UNL     1      17.730 -24.538   0.045  1.00  0.00    -0.013 A 
ATOM     14  C   UNL     1      17.338 -25.813   0.497  1.00  0.00    +0.008 A 
ATOM     15  C   UNL     1      19.100 -24.324  -0.195  1.00  0.00    +0.008 A 
ATOM     16  C   UNL     1      18.276 -26.829   0.709  1.00  0.00    +0.020 A 
ATOM     17  C   UNL     1      20.039 -25.340   0.017  1.00  0.00    +0.020 A 
ATOM     18  C   UNL     1      19.631 -26.595   0.470  1.00  0.00    +0.052 A 
ATOM     19  C   UNL     1      20.592 -27.635   0.691  1.00  0.00    +0.099 C 
ATOM     20  N   UNL     1      21.364 -28.484   0.865  1.00  0.00    -0.192 NA
ENDBRANCH   5  13
ENDBRANCH   3   4
ENDBRANCH   1   3
BRANCH   1  21
ATOM     21  C   UNL     1      15.581 -18.824   2.343  1.00  0.00    +0.020 A 
ATOM     22  C   UNL     1      14.578 -17.856   2.444  1.00  0.00    +0.015 A 
ATOM     23  C   UNL     1      15.897 -19.651   3.426  1.00  0.00    +0.028 A 
ATOM     24  C   UNL     1      13.865 -17.736   3.636  1.00  0.00    +0.040 A 
ATOM     25  C   UNL     1      15.179 -19.529   4.627  1.00  0.00    +0.092 A 
ATOM     26  C   UNL     1      14.166 -18.573   4.709  1.00  0.00    +0.135 A 
ATOM     27  F   UNL     1      13.450 -18.457   5.835  1.00  0.00    -0.206 F 
BRANCH  25  28
ATOM     28  C   UNL     1      15.447 -20.414   5.806  1.00  0.00    +0.419 C 
ATOM     29  F   UNL     1      14.339 -21.055   6.265  1.00  0.00    -0.166 F 
ATOM     30  F   UNL     1      16.363 -21.384   5.527  1.00  0.00    -0.166 F 
ATOM     31  F   UNL     1      15.949 -19.737   6.876  1.00  0.00    -0.166 F 
ENDBRANCH  25  28
ENDBRANCH   1  21
TORSDOF 5
ENDMDL
MODEL 9
REMARK VINA RESULT:    -9.033      2.388      4.172
REMARK INTER + INTRA:         -12.946
REMARK INTER:                 -11.887
REMARK INTRA:                  -1.058
REMARK UNBOUND:                -1.272
REMARK SMILES CC1(c2ccc(C#N)cc2)NC(=O)N(CC(=O)c2ccc(F)c(C(F)(F)F)c2)C1=O
REMARK SMILES IDX 16 1 17 2 15 3 14 4 2 5 11 6 29 7 12 8 30 9 13 10 1 11 3 13
REMARK SMILES IDX 4 14 10 15 5 16 9 17 6 18 7 19 8 20 18 21 19 22 28 23 20 24
REMARK SMILES IDX 23 25 21 26 22 27 24 28 25 29 26 30 27 31
REMARK H PARENT 11 12
ROOT
ATOM      1  C   UNL     1      16.756 -20.560   2.678  1.00  0.00    +0.182 C 
ATOM      2  O   UNL     1      16.738 -20.081   1.547  1.00  0.00    -0.292 OA
ENDROOT
BRANCH   1   3
ATOM      3  C   UNL     1      17.802 -21.578   3.123  1.00  0.00    +0.211 C 
BRANCH   3   4
ATOM      4  N   UNL     1      18.152 -22.557   2.116  1.00  0.00    -0.254 N 
ATOM      5  C   UNL     1      19.321 -23.770   0.439  1.00  0.00    +0.144 C 
ATOM      6  N   UNL     1      17.978 -24.250   0.694  1.00  0.00    -0.319 N 
ATOM      7  C   UNL     1      19.380 -22.659   1.521  1.00  0.00    +0.261 C 
ATOM      8  C   UNL     1      17.305 -23.492   1.617  1.00  0.00    +0.325 C 
ATOM      9  O   UNL     1      20.350 -21.958   1.783  1.00  0.00    -0.271 OA
ATOM     10  O   UNL     1      16.130 -23.646   1.902  1.00  0.00    -0.248 OA
ATOM     11  C   UNL     1      20.338 -24.868   0.745  1.00  0.00    +0.051 C 
ATOM     12  H   UNL     1      17.512 -24.996   0.194  1.00  0.00    +0.166 HD
BRANCH   5  13
ATOM     13  C   UNL     1      19.487 -23.187  -0.966  1.00  0.00    -0.013 A 
ATOM     14  C   UNL     1      20.576 -23.581  -1.766  1.00  0.00    +0.008 A 
ATOM     15  C   UNL     1      18.583 -22.254  -1.509  1.00  0.00    +0.008 A 
ATOM     16  C   UNL     1      20.762 -23.059  -3.051  1.00  0.00    +0.020 A 
ATOM     17  C   UNL     1      18.768 -21.731  -2.794  1.00  0.00    +0.020 A 
ATOM     18  C   UNL     1      19.858 -22.131  -3.569  1.00  0.00    +0.052 A 
ATOM     19  C   UNL     1      20.049 -21.593  -4.883  1.00  0.00    +0.099 C 
ATOM     20  N   UNL     1      20.208 -21.168  -5.951  1.00  0.00    -0.192 NA
ENDBRANCH   5  13
ENDBRANCH   3   4
ENDBRANCH   1   3
BRANCH   1  21
ATOM     21  C   UNL     1      15.706 -20.134   3.623  1.00  0.00    +0.020 A 
ATOM     22  C   UNL     1      15.331 -21.001   4.652  1.00  0.00    +0.015 A 
ATOM     23  C   UNL     1      15.106 -18.878   3.482  1.00  0.00    +0.028 A 
ATOM     24  C   UNL     1      14.363 -20.592   5.568  1.00  0.00    +0.040 A 
ATOM     25  C   UNL     1      14.130 -18.467   4.405  1.00  0.00    +0.092 A 
ATOM     26  C   UNL     1      13.778 -19.333   5.440  1.00  0.00    +0.135 A 
ATOM     27  F   UNL     1      12.870 -18.952   6.348  1.00  0.00    -0.206 F 
BRANCH  25  28
ATOM     28  C   UNL     1      13.482 -17.118   4.327  1.00  0.00    +0.419 C 
ATOM     29  F   UNL     1      13.840 -16.408   3.224  1.00  0.00    -0.166 F 
ATOM     30  F   UNL     1      12.121 -17.200   4.306  1.00  0.00    -0.166 F 
ATOM     31  F   UNL     1      13.782 -16.321   5.391  1.00  0.00    -0.166 F 
ENDBRANCH  25  28
ENDBRANCH   1  21
TORSDOF 5
ENDMDL
