MODEL 1
REMARK VINA RESULT:    -8.470      0.000      0.000
REMARK INTER + INTRA:         -13.221
REMARK INTER:                 -11.689
REMARK INTRA:                  -1.532
REMARK UNBOUND:                -1.532
REMARK SMILES COc1ccc(C(=O)CN2C(=O)NC(C)(c3ccc(S(N)(=O)=O)cc3)C2=O)cc1
REMARK SMILES IDX 10 1 11 2 12 3 13 4 14 5 15 6 26 7 27 8 9 10 7 11 8 12 6 13
REMARK SMILES IDX 3 14 4 15 29 16 5 17 28 18 2 19 1 20 16 21 17 22 25 23 18 24
REMARK SMILES IDX 24 25 19 26 20 27 22 28 23 29 21 30
REMARK H PARENT 13 9 21 31 21 32
ROOT
ATOM      1  N   UNL     1      18.890 -23.351   1.122  1.00  0.00    -0.254 N 
ATOM      2  C   UNL     1      19.935 -22.651   1.632  1.00  0.00    +0.325 C 
ATOM      3  O   UNL     1      20.981 -22.371   1.071  1.00  0.00    -0.248 OA
ATOM      4  N   UNL     1      19.635 -22.289   2.922  1.00  0.00    -0.319 N 
ATOM      5  C   UNL     1      18.386 -22.861   3.388  1.00  0.00    +0.144 C 
ATOM      6  C   UNL     1      18.676 -23.933   4.441  1.00  0.00    +0.051 C 
ATOM      7  C   UNL     1      17.927 -23.541   2.074  1.00  0.00    +0.261 C 
ATOM      8  O   UNL     1      16.887 -24.172   1.912  1.00  0.00    -0.271 OA
ATOM      9  H   UNL     1      20.340 -21.868   3.511  1.00  0.00    +0.166 HD
ENDROOT
BRANCH   1  10
ATOM     10  C   UNL     1      18.887 -23.973  -0.180  1.00  0.00    +0.211 C 
BRANCH  10  11
ATOM     11  C   UNL     1      18.874 -22.888  -1.254  1.00  0.00    +0.182 C 
ATOM     12  O   UNL     1      19.548 -22.962  -2.282  1.00  0.00    -0.292 OA
BRANCH  11  13
ATOM     13  C   UNL     1      17.995 -21.696  -1.044  1.00  0.00    +0.020 A 
ATOM     14  C   UNL     1      16.422 -19.392  -0.654  1.00  0.00    +0.118 A 
ATOM     15  C   UNL     1      15.822 -20.648  -0.736  1.00  0.00    +0.047 A 
ATOM     16  C   UNL     1      17.810 -19.292  -0.769  1.00  0.00    +0.047 A 
ATOM     17  C   UNL     1      16.602 -21.797  -0.931  1.00  0.00    +0.016 A 
ATOM     18  C   UNL     1      18.593 -20.434  -0.964  1.00  0.00    +0.016 A 
BRANCH  14  19
ATOM     19  O   UNL     1      15.778 -18.201  -0.467  1.00  0.00    -0.497 OA
ATOM     20  C   UNL     1      15.775 -17.667   0.851  1.00  0.00    +0.278 C 
ENDBRANCH  14  19
ENDBRANCH  11  13
ENDBRANCH  10  11
ENDBRANCH   1  10
BRANCH   5  21
ATOM     21  C   UNL     1      17.395 -21.808   3.879  1.00  0.00    -0.013 A 
ATOM     22  C   UNL     1      16.895 -20.795   3.038  1.00  0.00    +0.008 A 
ATOM     23  C   UNL     1      16.950 -21.830   5.217  1.00  0.00    +0.008 A 
ATOM     24  C   UNL     1      15.993 -19.839   3.514  1.00  0.00    +0.022 A 
ATOM     25  C   UNL     1      16.048 -20.879   5.700  1.00  0.00    +0.022 A 
ATOM     26  C   UNL     1      15.582 -19.878   4.847  1.00  0.00    +0.082 A 
BRANCH  26  27
ATOM     27  S   UNL     1      14.415 -18.692   5.442  1.00  0.00    +0.238 S 
ATOM     28  O   UNL     1      15.017 -17.919   6.502  1.00  0.00    -0.207 OA
ATOM     29  O   UNL     1      13.123 -19.324   5.581  1.00  0.00    -0.207 OA
BRANCH  27  30
ATOM     30  N   UNL     1      14.279 -17.651   4.132  1.00  0.00    -0.225 NA
ATOM     31  H   UNL     1      13.361 -17.208   4.137  1.00  0.00    +0.137 HD
ATOM     32  H   UNL     1      14.488 -18.154   3.269  1.00  0.00    +0.137 HD
ENDBRANCH  27  30
ENDBRANCH  26  27
ENDBRANCH   5  21
TORSDOF 7
ENDMDL
MODEL 2
REMARK VINA RESULT:    -8.320      3.010      6.538
REMARK INTER + INTRA:         -13.013
REMARK INTER:                 -11.910
REMARK INTRA:                  -1.103
REMARK UNBOUND:                -1.532
REMARK SMILES COc1ccc(C(=O)CN2C(=O)NC(C)(c3ccc(S(N)(=O)=O)cc3)C2=O)cc1
REMARK SMILES IDX 10 1 11 2 12 3 13 4 14 5 15 6 26 7 27 8 9 10 7 11 8 12 6 13
REMARK SMILES IDX 3 14 4 15 29 16 5 17 28 18 2 19 1 20 16 21 17 22 25 23 18 24
REMARK SMILES IDX 24 25 19 26 20 27 22 28 23 29 21 30
REMARK H PARENT 13 9 21 31 21 32
ROOT
ATOM      1  N   UNL     1      16.823 -19.884  -0.673  1.00  0.00    -0.254 N 
ATOM      2  C   UNL     1      17.800 -19.249  -1.367  1.00  0.00    +0.325 C 
ATOM      3  O   UNL     1      17.806 -18.089  -1.743  1.00  0.00    -0.248 OA
ATOM      4  N   UNL     1      18.824 -20.134  -1.597  1.00  0.00    -0.319 N 
ATOM      5  C   UNL     1      18.507 -21.481  -1.162  1.00  0.00    +0.144 C 
ATOM      6  C   UNL     1      18.316 -22.382  -2.384  1.00  0.00    +0.051 C 
ATOM      7  C   UNL     1      17.131 -21.206  -0.505  1.00  0.00    +0.261 C 
ATOM      8  O   UNL     1      16.416 -22.034   0.049  1.00  0.00    -0.271 OA
ATOM      9  H   UNL     1      19.589 -19.883  -2.208  1.00  0.00    +0.166 HD
ENDROOT
BRANCH   1  10
ATOM     10  C   UNL     1      15.550 -19.292  -0.334  1.00  0.00    +0.211 C 
BRANCH  10  11
ATOM     11  C   UNL     1      15.731 -18.373   0.872  1.00  0.00    +0.182 C 
ATOM     12  O   UNL     1      15.945 -17.165   0.761  1.00  0.00    -0.292 OA
BRANCH  11  13
ATOM     13  C   UNL     1      15.633 -18.972   2.239  1.00  0.00    +0.020 A 
ATOM     14  C   UNL     1      15.365 -20.041   4.831  1.00  0.00    +0.118 A 
ATOM     15  C   UNL     1      16.371 -20.500   3.981  1.00  0.00    +0.047 A 
ATOM     16  C   UNL     1      14.494 -19.048   4.381  1.00  0.00    +0.047 A 
ATOM     17  C   UNL     1      16.506 -19.970   2.690  1.00  0.00    +0.016 A 
ATOM     18  C   UNL     1      14.624 -18.516   3.095  1.00  0.00    +0.016 A 
BRANCH  14  19
ATOM     19  O   UNL     1      15.127 -20.474   6.106  1.00  0.00    -0.497 OA
ATOM     20  C   UNL     1      15.770 -21.676   6.512  1.00  0.00    +0.278 C 
ENDBRANCH  14  19
ENDBRANCH  11  13
ENDBRANCH  10  11
ENDBRANCH   1  10
BRANCH   5  21
ATOM     21  C   UNL     1      19.525 -22.043  -0.172  1.00  0.00    -0.013 A 
ATOM     22  C   UNL     1      20.443 -23.049  -0.527  1.00  0.00    +0.008 A 
ATOM     23  C   UNL     1      19.566 -21.552   1.150  1.00  0.00    +0.008 A 
ATOM     24  C   UNL     1      21.361 -23.552   0.400  1.00  0.00    +0.022 A 
ATOM     25  C   UNL     1      20.481 -22.048   2.081  1.00  0.00    +0.022 A 
ATOM     26  C   UNL     1      21.369 -23.057   1.704  1.00  0.00    +0.082 A 
BRANCH  26  27
ATOM     27  S   UNL     1      22.552 -23.664   2.869  1.00  0.00    +0.238 S 
ATOM     28  O   UNL     1      23.556 -24.432   2.173  1.00  0.00    -0.207 OA
ATOM     29  O   UNL     1      21.859 -24.167   4.032  1.00  0.00    -0.207 OA
BRANCH  27  30
ATOM     30  N   UNL     1      23.311 -22.249   3.361  1.00  0.00    -0.225 NA
ATOM     31  H   UNL     1      24.021 -22.465   4.062  1.00  0.00    +0.137 HD
ATOM     32  H   UNL     1      22.613 -21.576   3.678  1.00  0.00    +0.137 HD
ENDBRANCH  27  30
ENDBRANCH  26  27
ENDBRANCH   5  21
TORSDOF 7
ENDMDL
MODEL 3
REMARK VINA RESULT:    -7.705      2.213      3.655
REMARK INTER + INTRA:         -12.164
REMARK INTER:                 -11.092
REMARK INTRA:                  -1.073
REMARK UNBOUND:                -1.532
REMARK SMILES COc1ccc(C(=O)CN2C(=O)NC(C)(c3ccc(S(N)(=O)=O)cc3)C2=O)cc1
REMARK SMILES IDX 10 1 11 2 12 3 13 4 14 5 15 6 26 7 27 8 9 10 7 11 8 12 6 13
REMARK SMILES IDX 3 14 4 15 29 16 5 17 28 18 2 19 1 20 16 21 17 22 25 23 18 24
REMARK SMILES IDX 24 25 19 26 20 27 22 28 23 29 21 30
REMARK H PARENT 13 9 21 31 21 32
ROOT
ATOM      1  N   UNL     1      18.275 -22.815   1.414  1.00  0.00    -0.254 N 
ATOM      2  C   UNL     1      19.250 -22.108   2.039  1.00  0.00    +0.325 C 
ATOM      3  O   UNL     1      20.392 -21.921   1.652  1.00  0.00    -0.248 OA
ATOM      4  N   UNL     1      18.750 -21.613   3.217  1.00  0.00    -0.319 N 
ATOM      5  C   UNL     1      17.410 -22.091   3.500  1.00  0.00    +0.144 C 
ATOM      6  C   UNL     1      17.454 -23.066   4.679  1.00  0.00    +0.051 C 
ATOM      7  C   UNL     1      17.151 -22.877   2.191  1.00  0.00    +0.261 C 
ATOM      8  O   UNL     1      16.124 -23.482   1.902  1.00  0.00    -0.271 OA
ATOM      9  H   UNL     1      19.362 -21.163   3.883  1.00  0.00    +0.166 HD
ENDROOT
BRANCH   1  10
ATOM     10  C   UNL     1      18.466 -23.560   0.192  1.00  0.00    +0.211 C 
BRANCH  10  11
ATOM     11  C   UNL     1      18.253 -22.630  -1.000  1.00  0.00    +0.182 C 
ATOM     12  O   UNL     1      17.187 -22.048  -1.206  1.00  0.00    -0.292 OA
BRANCH  11  13
ATOM     13  C   UNL     1      19.394 -22.416  -1.944  1.00  0.00    +0.020 A 
ATOM     14  C   UNL     1      21.476 -21.973  -3.788  1.00  0.00    +0.118 A 
ATOM     15  C   UNL     1      21.749 -22.531  -2.539  1.00  0.00    +0.047 A 
ATOM     16  C   UNL     1      20.160 -21.637  -4.110  1.00  0.00    +0.047 A 
ATOM     17  C   UNL     1      20.714 -22.752  -1.619  1.00  0.00    +0.016 A 
ATOM     18  C   UNL     1      19.125 -21.855  -3.197  1.00  0.00    +0.016 A 
BRANCH  14  19
ATOM     19  O   UNL     1      22.389 -21.708  -4.770  1.00  0.00    -0.497 OA
ATOM     20  C   UNL     1      21.930 -20.976  -5.900  1.00  0.00    +0.278 C 
ENDBRANCH  14  19
ENDBRANCH  11  13
ENDBRANCH  10  11
ENDBRANCH   1  10
BRANCH   5  21
ATOM     21  C   UNL     1      16.405 -20.960   3.711  1.00  0.00    -0.013 A 
ATOM     22  C   UNL     1      15.581 -20.888   4.850  1.00  0.00    +0.008 A 
ATOM     23  C   UNL     1      16.280 -19.940   2.744  1.00  0.00    +0.008 A 
ATOM     24  C   UNL     1      14.664 -19.847   5.016  1.00  0.00    +0.022 A 
ATOM     25  C   UNL     1      15.367 -18.895   2.904  1.00  0.00    +0.022 A 
ATOM     26  C   UNL     1      14.553 -18.860   4.037  1.00  0.00    +0.082 A 
BRANCH  26  27
ATOM     27  S   UNL     1      13.420 -17.521   4.261  1.00  0.00    +0.238 S 
ATOM     28  O   UNL     1      12.270 -17.988   4.997  1.00  0.00    -0.207 OA
ATOM     29  O   UNL     1      13.302 -16.786   3.023  1.00  0.00    -0.207 OA
BRANCH  27  30
ATOM     30  N   UNL     1      14.268 -16.523   5.311  1.00  0.00    -0.225 NA
ATOM     31  H   UNL     1      14.709 -15.766   4.788  1.00  0.00    +0.137 HD
ATOM     32  H   UNL     1      14.923 -17.078   5.862  1.00  0.00    +0.137 HD
ENDBRANCH  27  30
ENDBRANCH  26  27
ENDBRANCH   5  21
TORSDOF 7
ENDMDL
MODEL 4
REMARK VINA RESULT:    -7.645      2.074      4.656
REMARK INTER + INTRA:         -12.082
REMARK INTER:                 -10.683
REMARK INTRA:                  -1.400
REMARK UNBOUND:                -1.532
REMARK SMILES COc1ccc(C(=O)CN2C(=O)NC(C)(c3ccc(S(N)(=O)=O)cc3)C2=O)cc1
REMARK SMILES IDX 10 1 11 2 12 3 13 4 14 5 15 6 26 7 27 8 9 10 7 11 8 12 6 13
REMARK SMILES IDX 3 14 4 15 29 16 5 17 28 18 2 19 1 20 16 21 17 22 25 23 18 24
REMARK SMILES IDX 24 25 19 26 20 27 22 28 23 29 21 30
REMARK H PARENT 13 9 21 31 21 32
ROOT
ATOM      1  N   UNL     1      17.525 -21.674  -0.131  1.00  0.00    -0.254 N 
ATOM      2  C   UNL     1      16.452 -21.601  -0.958  1.00  0.00    +0.325 C 
ATOM      3  O   UNL     1      16.036 -22.468  -1.707  1.00  0.00    -0.248 OA
ATOM      4  N   UNL     1      15.877 -20.361  -0.824  1.00  0.00    -0.319 N 
ATOM      5  C   UNL     1      16.644 -19.478   0.033  1.00  0.00    +0.144 C 
ATOM      6  C   UNL     1      17.287 -18.377  -0.814  1.00  0.00    +0.051 C 
ATOM      7  C   UNL     1      17.736 -20.476   0.493  1.00  0.00    +0.261 C 
ATOM      8  O   UNL     1      18.657 -20.233   1.267  1.00  0.00    -0.271 OA
ATOM      9  H   UNL     1      15.138 -20.071  -1.450  1.00  0.00    +0.166 HD
ENDROOT
BRANCH   1  10
ATOM     10  C   UNL     1      18.431 -22.797  -0.072  1.00  0.00    +0.211 C 
BRANCH  10  11
ATOM     11  C   UNL     1      17.930 -23.789   0.975  1.00  0.00    +0.182 C 
ATOM     12  O   UNL     1      17.793 -24.991   0.739  1.00  0.00    -0.292 OA
BRANCH  11  13
ATOM     13  C   UNL     1      17.604 -23.273   2.340  1.00  0.00    +0.020 A 
ATOM     14  C   UNL     1      16.890 -22.308   4.888  1.00  0.00    +0.118 A 
ATOM     15  C   UNL     1      18.232 -22.502   4.559  1.00  0.00    +0.047 A 
ATOM     16  C   UNL     1      15.908 -22.599   3.940  1.00  0.00    +0.047 A 
ATOM     17  C   UNL     1      18.589 -22.983   3.292  1.00  0.00    +0.016 A 
ATOM     18  C   UNL     1      16.259 -23.079   2.675  1.00  0.00    +0.016 A 
BRANCH  14  19
ATOM     19  O   UNL     1      16.412 -21.847   6.083  1.00  0.00    -0.497 OA
ATOM     20  C   UNL     1      15.019 -21.568   6.157  1.00  0.00    +0.278 C 
ENDBRANCH  14  19
ENDBRANCH  11  13
ENDBRANCH  10  11
ENDBRANCH   1  10
BRANCH   5  21
ATOM     21  C   UNL     1      15.830 -18.922   1.199  1.00  0.00    -0.013 A 
ATOM     22  C   UNL     1      15.806 -19.543   2.463  1.00  0.00    +0.008 A 
ATOM     23  C   UNL     1      15.067 -17.748   1.028  1.00  0.00    +0.008 A 
ATOM     24  C   UNL     1      15.046 -19.018   3.512  1.00  0.00    +0.022 A 
ATOM     25  C   UNL     1      14.306 -17.218   2.073  1.00  0.00    +0.022 A 
ATOM     26  C   UNL     1      14.290 -17.863   3.310  1.00  0.00    +0.082 A 
BRANCH  26  27
ATOM     27  S   UNL     1      13.357 -17.177   4.645  1.00  0.00    +0.238 S 
ATOM     28  O   UNL     1      13.391 -18.085   5.767  1.00  0.00    -0.207 OA
ATOM     29  O   UNL     1      12.126 -16.625   4.130  1.00  0.00    -0.207 OA
BRANCH  27  30
ATOM     30  N   UNL     1      14.302 -15.861   5.087  1.00  0.00    -0.225 NA
ATOM     31  H   UNL     1      13.702 -15.076   5.341  1.00  0.00    +0.137 HD
ATOM     32  H   UNL     1      14.966 -15.647   4.342  1.00  0.00    +0.137 HD
ENDBRANCH  27  30
ENDBRANCH  26  27
ENDBRANCH   5  21
TORSDOF 7
ENDMDL
MODEL 5
REMARK VINA RESULT:    -7.597      3.412      7.334
REMARK INTER + INTRA:         -12.016
REMARK INTER:                 -11.264
REMARK INTRA:                  -0.752
REMARK UNBOUND:                -1.532
REMARK SMILES COc1ccc(C(=O)CN2C(=O)NC(C)(c3ccc(S(N)(=O)=O)cc3)C2=O)cc1
REMARK SMILES IDX 10 1 11 2 12 3 13 4 14 5 15 6 26 7 27 8 9 10 7 11 8 12 6 13
REMARK SMILES IDX 3 14 4 15 29 16 5 17 28 18 2 19 1 20 16 21 17 22 25 23 18 24
REMARK SMILES IDX 24 25 19 26 20 27 22 28 23 29 21 30
REMARK H PARENT 13 9 21 31 21 32
ROOT
ATOM      1  N   UNL     1      17.656 -22.929   2.127  1.00  0.00    -0.254 N 
ATOM      2  C   UNL     1      18.162 -24.183   2.017  1.00  0.00    +0.325 C 
ATOM      3  O   UNL     1      17.693 -25.212   2.474  1.00  0.00    -0.248 OA
ATOM      4  N   UNL     1      19.324 -24.128   1.289  1.00  0.00    -0.319 N 
ATOM      5  C   UNL     1      19.726 -22.769   0.979  1.00  0.00    +0.144 C 
ATOM      6  C   UNL     1      20.975 -22.408   1.788  1.00  0.00    +0.051 C 
ATOM      7  C   UNL     1      18.503 -22.017   1.559  1.00  0.00    +0.261 C 
ATOM      8  O   UNL     1      18.326 -20.803   1.543  1.00  0.00    -0.271 OA
ATOM      9  H   UNL     1      19.914 -24.944   1.205  1.00  0.00    +0.166 HD
ENDROOT
BRANCH   1  10
ATOM     10  C   UNL     1      16.489 -22.588   2.904  1.00  0.00    +0.211 C 
BRANCH  10  11
ATOM     11  C   UNL     1      16.930 -22.093   4.280  1.00  0.00    +0.182 C 
ATOM     12  O   UNL     1      17.820 -22.643   4.929  1.00  0.00    -0.292 OA
BRANCH  11  13
ATOM     13  C   UNL     1      16.255 -20.885   4.847  1.00  0.00    +0.020 A 
ATOM     14  C   UNL     1      14.925 -18.606   5.833  1.00  0.00    +0.118 A 
ATOM     15  C   UNL     1      15.927 -19.217   6.586  1.00  0.00    +0.047 A 
ATOM     16  C   UNL     1      14.590 -19.139   4.587  1.00  0.00    +0.047 A 
ATOM     17  C   UNL     1      16.590 -20.352   6.099  1.00  0.00    +0.016 A 
ATOM     18  C   UNL     1      15.248 -20.270   4.095  1.00  0.00    +0.016 A 
BRANCH  14  19
ATOM     19  O   UNL     1      14.205 -17.502   6.193  1.00  0.00    -0.497 OA
ATOM     20  C   UNL     1      13.167 -17.091   5.312  1.00  0.00    +0.278 C 
ENDBRANCH  14  19
ENDBRANCH  11  13
ENDBRANCH  10  11
ENDBRANCH   1  10
BRANCH   5  21
ATOM     21  C   UNL     1      19.906 -22.527  -0.518  1.00  0.00    -0.013 A 
ATOM     22  C   UNL     1      18.872 -22.019  -1.327  1.00  0.00    +0.008 A 
ATOM     23  C   UNL     1      21.142 -22.815  -1.134  1.00  0.00    +0.008 A 
ATOM     24  C   UNL     1      19.060 -21.813  -2.697  1.00  0.00    +0.022 A 
ATOM     25  C   UNL     1      21.337 -22.610  -2.502  1.00  0.00    +0.022 A 
ATOM     26  C   UNL     1      20.289 -22.120  -3.281  1.00  0.00    +0.082 A 
BRANCH  26  27
ATOM     27  S   UNL     1      20.541 -21.827  -5.006  1.00  0.00    +0.238 S 
ATOM     28  O   UNL     1      21.955 -21.856  -5.293  1.00  0.00    -0.207 OA
ATOM     29  O   UNL     1      19.685 -20.746  -5.435  1.00  0.00    -0.207 OA
BRANCH  27  30
ATOM     30  N   UNL     1      19.902 -23.221  -5.691  1.00  0.00    -0.225 NA
ATOM     31  H   UNL     1      19.417 -22.987  -6.558  1.00  0.00    +0.137 HD
ATOM     32  H   UNL     1      19.315 -23.702  -5.009  1.00  0.00    +0.137 HD
ENDBRANCH  27  30
ENDBRANCH  26  27
ENDBRANCH   5  21
TORSDOF 7
ENDMDL
MODEL 6
REMARK VINA RESULT:    -7.397      2.835      5.401
REMARK INTER + INTRA:         -11.739
REMARK INTER:                 -10.677
REMARK INTRA:                  -1.062
REMARK UNBOUND:                -1.532
REMARK SMILES COc1ccc(C(=O)CN2C(=O)NC(C)(c3ccc(S(N)(=O)=O)cc3)C2=O)cc1
REMARK SMILES IDX 10 1 11 2 12 3 13 4 14 5 15 6 26 7 27 8 9 10 7 11 8 12 6 13
REMARK SMILES IDX 3 14 4 15 29 16 5 17 28 18 2 19 1 20 16 21 17 22 25 23 18 24
REMARK SMILES IDX 24 25 19 26 20 27 22 28 23 29 21 30
REMARK H PARENT 13 9 21 31 21 32
ROOT
ATOM      1  N   UNL     1      18.861 -23.564   1.897  1.00  0.00    -0.254 N 
ATOM      2  C   UNL     1      17.721 -24.299   1.868  1.00  0.00    +0.325 C 
ATOM      3  O   UNL     1      17.623 -25.514   1.916  1.00  0.00    -0.248 OA
ATOM      4  N   UNL     1      16.650 -23.447   1.773  1.00  0.00    -0.319 N 
ATOM      5  C   UNL     1      17.049 -22.063   1.600  1.00  0.00    +0.144 C 
ATOM      6  C   UNL     1      16.713 -21.608   0.178  1.00  0.00    +0.051 C 
ATOM      7  C   UNL     1      18.582 -22.235   1.736  1.00  0.00    +0.261 C 
ATOM      8  O   UNL     1      19.418 -21.339   1.682  1.00  0.00    -0.271 OA
ATOM      9  H   UNL     1      15.720 -23.810   1.614  1.00  0.00    +0.166 HD
ENDROOT
BRANCH   1  10
ATOM     10  C   UNL     1      20.191 -24.126   1.899  1.00  0.00    +0.211 C 
BRANCH  10  11
ATOM     11  C   UNL     1      20.806 -23.952   3.285  1.00  0.00    +0.182 C 
ATOM     12  O   UNL     1      20.226 -24.291   4.317  1.00  0.00    -0.292 OA
BRANCH  11  13
ATOM     13  C   UNL     1      22.174 -23.355   3.382  1.00  0.00    +0.020 A 
ATOM     14  C   UNL     1      24.733 -22.182   3.475  1.00  0.00    +0.118 A 
ATOM     15  C   UNL     1      24.300 -23.008   4.512  1.00  0.00    +0.047 A 
ATOM     16  C   UNL     1      23.883 -21.943   2.394  1.00  0.00    +0.047 A 
ATOM     17  C   UNL     1      23.027 -23.593   4.468  1.00  0.00    +0.016 A 
ATOM     18  C   UNL     1      22.613 -22.523   2.345  1.00  0.00    +0.016 A 
BRANCH  14  19
ATOM     19  O   UNL     1      25.945 -21.554   3.398  1.00  0.00    -0.497 OA
ATOM     20  C   UNL     1      26.704 -21.755   2.212  1.00  0.00    +0.278 C 
ENDBRANCH  14  19
ENDBRANCH  11  13
ENDBRANCH  10  11
ENDBRANCH   1  10
BRANCH   5  21
ATOM     21  C   UNL     1      16.467 -21.136   2.666  1.00  0.00    -0.013 A 
ATOM     22  C   UNL     1      16.168 -19.786   2.406  1.00  0.00    +0.008 A 
ATOM     23  C   UNL     1      16.213 -21.629   3.964  1.00  0.00    +0.008 A 
ATOM     24  C   UNL     1      15.643 -18.956   3.402  1.00  0.00    +0.022 A 
ATOM     25  C   UNL     1      15.687 -20.806   4.963  1.00  0.00    +0.022 A 
ATOM     26  C   UNL     1      15.415 -19.467   4.679  1.00  0.00    +0.082 A 
BRANCH  26  27
ATOM     27  S   UNL     1      14.717 -18.431   5.930  1.00  0.00    +0.238 S 
ATOM     28  O   UNL     1      15.732 -18.110   6.904  1.00  0.00    -0.207 OA
ATOM     29  O   UNL     1      13.419 -18.943   6.302  1.00  0.00    -0.207 OA
BRANCH  27  30
ATOM     30  N   UNL     1      14.427 -17.012   5.081  1.00  0.00    -0.225 NA
ATOM     31  H   UNL     1      13.423 -16.837   5.035  1.00  0.00    +0.137 HD
ATOM     32  H   UNL     1      14.878 -17.058   4.166  1.00  0.00    +0.137 HD
ENDBRANCH  27  30
ENDBRANCH  26  27
ENDBRANCH   5  21
TORSDOF 7
ENDMDL
MODEL 7
REMARK VINA RESULT:    -7.282      2.404      5.348
REMARK INTER + INTRA:         -11.581
REMARK INTER:                 -10.697
REMARK INTRA:                  -0.884
REMARK UNBOUND:                -1.532
REMARK SMILES COc1ccc(C(=O)CN2C(=O)NC(C)(c3ccc(S(N)(=O)=O)cc3)C2=O)cc1
REMARK SMILES IDX 10 1 11 2 12 3 13 4 14 5 15 6 26 7 27 8 9 10 7 11 8 12 6 13
REMARK SMILES IDX 3 14 4 15 29 16 5 17 28 18 2 19 1 20 16 21 17 22 25 23 18 24
REMARK SMILES IDX 24 25 19 26 20 27 22 28 23 29 21 30
REMARK H PARENT 13 9 21 31 21 32
ROOT
ATOM      1  N   UNL     1      17.871 -22.286   0.050  1.00  0.00    -0.254 N 
ATOM      2  C   UNL     1      16.747 -22.198  -0.705  1.00  0.00    +0.325 C 
ATOM      3  O   UNL     1      16.297 -23.042  -1.462  1.00  0.00    -0.248 OA
ATOM      4  N   UNL     1      16.164 -20.975  -0.486  1.00  0.00    -0.319 N 
ATOM      5  C   UNL     1      16.971 -20.113   0.357  1.00  0.00    +0.144 C 
ATOM      6  C   UNL     1      17.544 -18.969  -0.482  1.00  0.00    +0.051 C 
ATOM      7  C   UNL     1      18.103 -21.110   0.709  1.00  0.00    +0.261 C 
ATOM      8  O   UNL     1      19.067 -20.883   1.433  1.00  0.00    -0.271 OA
ATOM      9  H   UNL     1      15.383 -20.673  -1.052  1.00  0.00    +0.166 HD
ENDROOT
BRANCH   1  10
ATOM     10  C   UNL     1      18.794 -23.395   0.008  1.00  0.00    +0.211 C 
BRANCH  10  11
ATOM     11  C   UNL     1      18.579 -24.273   1.238  1.00  0.00    +0.182 C 
ATOM     12  O   UNL     1      17.511 -24.839   1.472  1.00  0.00    -0.292 OA
BRANCH  11  13
ATOM     13  C   UNL     1      19.722 -24.455   2.186  1.00  0.00    +0.020 A 
ATOM     14  C   UNL     1      21.918 -24.861   3.903  1.00  0.00    +0.118 A 
ATOM     15  C   UNL     1      20.890 -23.992   4.268  1.00  0.00    +0.047 A 
ATOM     16  C   UNL     1      21.844 -25.525   2.678  1.00  0.00    +0.047 A 
ATOM     17  C   UNL     1      19.797 -23.787   3.415  1.00  0.00    +0.016 A 
ATOM     18  C   UNL     1      20.756 -25.325   1.823  1.00  0.00    +0.016 A 
BRANCH  14  19
ATOM     19  O   UNL     1      23.033 -25.146   4.640  1.00  0.00    -0.497 OA
ATOM     20  C   UNL     1      23.983 -24.101   4.806  1.00  0.00    +0.278 C 
ENDBRANCH  14  19
ENDBRANCH  11  13
ENDBRANCH  10  11
ENDBRANCH   1  10
BRANCH   5  21
ATOM     21  C   UNL     1      16.222 -19.618   1.593  1.00  0.00    -0.013 A 
ATOM     22  C   UNL     1      16.363 -20.232   2.853  1.00  0.00    +0.008 A 
ATOM     23  C   UNL     1      15.356 -18.510   1.494  1.00  0.00    +0.008 A 
ATOM     24  C   UNL     1      15.661 -19.764   3.968  1.00  0.00    +0.022 A 
ATOM     25  C   UNL     1      14.652 -18.036   2.604  1.00  0.00    +0.022 A 
ATOM     26  C   UNL     1      14.800 -18.674   3.836  1.00  0.00    +0.082 A 
BRANCH  26  27
ATOM     27  S   UNL     1      13.939 -18.057   5.252  1.00  0.00    +0.238 S 
ATOM     28  O   UNL     1      13.110 -19.104   5.799  1.00  0.00    -0.207 OA
ATOM     29  O   UNL     1      13.430 -16.737   4.961  1.00  0.00    -0.207 OA
BRANCH  27  30
ATOM     30  N   UNL     1      15.191 -17.838   6.349  1.00  0.00    -0.225 NA
ATOM     31  H   UNL     1      16.072 -17.724   5.848  1.00  0.00    +0.137 HD
ATOM     32  H   UNL     1      15.197 -18.603   7.024  1.00  0.00    +0.137 HD
ENDBRANCH  27  30
ENDBRANCH  26  27
ENDBRANCH   5  21
TORSDOF 7
ENDMDL
MODEL 8
REMARK VINA RESULT:    -7.207      4.050      6.793
REMARK INTER + INTRA:         -11.477
REMARK INTER:                 -10.614
REMARK INTRA:                  -0.864
REMARK UNBOUND:                -1.532
REMARK SMILES COc1ccc(C(=O)CN2C(=O)NC(C)(c3ccc(S(N)(=O)=O)cc3)C2=O)cc1
REMARK SMILES IDX 10 1 11 2 12 3 13 4 14 5 15 6 26 7 27 8 9 10 7 11 8 12 6 13
REMARK SMILES IDX 3 14 4 15 29 16 5 17 28 18 2 19 1 20 16 21 17 22 25 23 18 24
REMARK SMILES IDX 24 25 19 26 20 27 22 28 23 29 21 30
REMARK H PARENT 13 9 21 31 21 32
ROOT
ATOM      1  N   UNL     1      19.132 -23.253   1.823  1.00  0.00    -0.254 N 
ATOM      2  C   UNL     1      19.827 -23.205   0.658  1.00  0.00    +0.325 C 
ATOM      3  O   UNL     1      19.441 -22.773  -0.415  1.00  0.00    -0.248 OA
ATOM      4  N   UNL     1      21.076 -23.732   0.868  1.00  0.00    -0.319 N 
ATOM      5  C   UNL     1      21.231 -24.292   2.197  1.00  0.00    +0.144 C 
ATOM      6  C   UNL     1      21.309 -25.818   2.103  1.00  0.00    +0.051 C 
ATOM      7  C   UNL     1      19.861 -23.883   2.793  1.00  0.00    +0.261 C 
ATOM      8  O   UNL     1      19.474 -24.108   3.935  1.00  0.00    -0.271 OA
ATOM      9  H   UNL     1      21.699 -23.898   0.089  1.00  0.00    +0.166 HD
ENDROOT
BRANCH   1  10
ATOM     10  C   UNL     1      17.747 -22.871   1.960  1.00  0.00    +0.211 C 
BRANCH  10  11
ATOM     11  C   UNL     1      17.672 -21.414   2.410  1.00  0.00    +0.182 C 
ATOM     12  O   UNL     1      18.477 -20.560   2.035  1.00  0.00    -0.292 OA
BRANCH  11  13
ATOM     13  C   UNL     1      16.567 -21.015   3.336  1.00  0.00    +0.020 A 
ATOM     14  C   UNL     1      14.485 -20.172   5.036  1.00  0.00    +0.118 A 
ATOM     15  C   UNL     1      14.971 -21.477   5.113  1.00  0.00    +0.047 A 
ATOM     16  C   UNL     1      15.042 -19.292   4.107  1.00  0.00    +0.047 A 
ATOM     17  C   UNL     1      16.007 -21.900   4.267  1.00  0.00    +0.016 A 
ATOM     18  C   UNL     1      16.075 -19.708   3.261  1.00  0.00    +0.016 A 
BRANCH  14  19
ATOM     19  O   UNL     1      13.484 -19.639   5.799  1.00  0.00    -0.497 OA
ATOM     20  C   UNL     1      13.360 -18.222   5.804  1.00  0.00    +0.278 C 
ENDBRANCH  14  19
ENDBRANCH  11  13
ENDBRANCH  10  11
ENDBRANCH   1  10
BRANCH   5  21
ATOM     21  C   UNL     1      22.407 -23.690   2.965  1.00  0.00    -0.013 A 
ATOM     22  C   UNL     1      23.078 -22.533   2.526  1.00  0.00    +0.008 A 
ATOM     23  C   UNL     1      22.853 -24.297   4.157  1.00  0.00    +0.008 A 
ATOM     24  C   UNL     1      24.156 -22.006   3.243  1.00  0.00    +0.022 A 
ATOM     25  C   UNL     1      23.928 -23.775   4.880  1.00  0.00    +0.022 A 
ATOM     26  C   UNL     1      24.584 -22.636   4.412  1.00  0.00    +0.082 A 
BRANCH  26  27
ATOM     27  S   UNL     1      25.923 -21.951   5.341  1.00  0.00    +0.238 S 
ATOM     28  O   UNL     1      25.907 -20.513   5.213  1.00  0.00    -0.207 OA
ATOM     29  O   UNL     1      27.113 -22.737   5.110  1.00  0.00    -0.207 OA
BRANCH  27  30
ATOM     30  N   UNL     1      25.453 -22.279   6.919  1.00  0.00    -0.225 NA
ATOM     31  H   UNL     1      24.855 -23.106   6.936  1.00  0.00    +0.137 HD
ATOM     32  H   UNL     1      25.021 -21.451   7.330  1.00  0.00    +0.137 HD
ENDBRANCH  27  30
ENDBRANCH  26  27
ENDBRANCH   5  21
TORSDOF 7
ENDMDL
MODEL 9
REMARK VINA RESULT:    -7.141      2.201      4.175
REMARK INTER + INTRA:         -11.386
REMARK INTER:                 -10.626
REMARK INTRA:                  -0.760
REMARK UNBOUND:                -1.532
REMARK SMILES COc1ccc(C(=O)CN2C(=O)NC(C)(c3ccc(S(N)(=O)=O)cc3)C2=O)cc1
REMARK SMILES IDX 10 1 11 2 12 3 13 4 14 5 15 6 26 7 27 8 9 10 7 11 8 12 6 13
REMARK SMILES IDX 3 14 4 15 29 16 5 17 28 18 2 19 1 20 16 21 17 22 25 23 18 24
REMARK SMILES IDX 24 25 19 26 20 27 22 28 23 29 21 30
REMARK H PARENT 13 9 21 31 21 32
ROOT
ATOM      1  N   UNL     1      18.358 -22.642   0.660  1.00  0.00    -0.254 N 
ATOM      2  C   UNL     1      17.215 -22.812  -0.050  1.00  0.00    +0.325 C 
ATOM      3  O   UNL     1      16.861 -23.813  -0.651  1.00  0.00    -0.248 OA
ATOM      4  N   UNL     1      16.485 -21.652   0.005  1.00  0.00    -0.319 N 
ATOM      5  C   UNL     1      17.193 -20.576   0.672  1.00  0.00    +0.144 C 
ATOM      6  C   UNL     1      17.595 -19.514  -0.355  1.00  0.00    +0.051 C 
ATOM      7  C   UNL     1      18.452 -21.358   1.122  1.00  0.00    +0.261 C 
ATOM      8  O   UNL     1      19.395 -20.903   1.761  1.00  0.00    -0.271 OA
ATOM      9  H   UNL     1      15.659 -21.540  -0.567  1.00  0.00    +0.166 HD
ENDROOT
BRANCH   1  10
ATOM     10  C   UNL     1      19.416 -23.621   0.748  1.00  0.00    +0.211 C 
BRANCH  10  11
ATOM     11  C   UNL     1      20.626 -23.124  -0.039  1.00  0.00    +0.182 C 
ATOM     12  O   UNL     1      21.671 -22.767   0.505  1.00  0.00    -0.292 OA
BRANCH  11  13
ATOM     13  C   UNL     1      20.530 -23.081  -1.531  1.00  0.00    +0.020 A 
ATOM     14  C   UNL     1      20.314 -22.906  -4.334  1.00  0.00    +0.118 A 
ATOM     15  C   UNL     1      20.823 -24.060  -3.738  1.00  0.00    +0.047 A 
ATOM     16  C   UNL     1      19.915 -21.841  -3.525  1.00  0.00    +0.047 A 
ATOM     17  C   UNL     1      20.933 -24.149  -2.344  1.00  0.00    +0.016 A 
ATOM     18  C   UNL     1      20.022 -21.925  -2.133  1.00  0.00    +0.016 A 
BRANCH  14  19
ATOM     19  O   UNL     1      20.157 -22.693  -5.675  1.00  0.00    -0.497 OA
ATOM     20  C   UNL     1      21.337 -22.681  -6.470  1.00  0.00    +0.278 C 
ENDBRANCH  14  19
ENDBRANCH  11  13
ENDBRANCH  10  11
ENDBRANCH   1  10
BRANCH   5  21
ATOM     21  C   UNL     1      16.416 -19.990   1.849  1.00  0.00    -0.013 A 
ATOM     22  C   UNL     1      15.618 -18.837   1.724  1.00  0.00    +0.008 A 
ATOM     23  C   UNL     1      16.486 -20.608   3.115  1.00  0.00    +0.008 A 
ATOM     24  C   UNL     1      14.922 -18.317   2.819  1.00  0.00    +0.022 A 
ATOM     25  C   UNL     1      15.792 -20.094   4.213  1.00  0.00    +0.022 A 
ATOM     26  C   UNL     1      15.021 -18.941   4.063  1.00  0.00    +0.082 A 
BRANCH  26  27
ATOM     27  S   UNL     1      14.114 -18.307   5.441  1.00  0.00    +0.238 S 
ATOM     28  O   UNL     1      14.987 -18.216   6.586  1.00  0.00    -0.207 OA
ATOM     29  O   UNL     1      12.823 -18.953   5.499  1.00  0.00    -0.207 OA
BRANCH  27  30
ATOM     30  N   UNL     1      13.816 -16.725   4.960  1.00  0.00    -0.225 NA
ATOM     31  H   UNL     1      14.595 -16.384   4.398  1.00  0.00    +0.137 HD
ATOM     32  H   UNL     1      13.615 -16.148   5.778  1.00  0.00    +0.137 HD
ENDBRANCH  27  30
ENDBRANCH  26  27
ENDBRANCH   5  21
TORSDOF 7
ENDMDL
