MODEL 1
REMARK VINA RESULT:    -8.454      0.000      0.000
REMARK INTER + INTRA:         -12.298
REMARK INTER:                 -11.419
REMARK INTRA:                  -0.879
REMARK UNBOUND:                -0.879
REMARK SMILES N#Cc1ccc(C(=O)Nc2sccc2C(=O)NC(=O)OCC2CC2)cc1
REMARK SMILES IDX 15 1 16 2 17 3 18 4 19 5 14 7 10 8 11 9 12 10 13 11 9 12
REMARK SMILES IDX 7 13 8 14 6 16 1 17 2 18 3 19 4 20 26 21 5 22 25 23 20 24
REMARK SMILES IDX 21 25 22 26 23 27 24 28
REMARK H PARENT 17 6 9 15
ROOT
ATOM      1  C   UNL     1      15.432 -18.952   5.679  1.00  0.00    +0.263 C 
ATOM      2  O   UNL     1      16.221 -18.418   6.455  1.00  0.00    -0.269 OA
ATOM      3  N   UNL     1      15.509 -20.260   5.263  1.00  0.00    -0.257 N 
ATOM      4  C   UNL     1      16.459 -21.155   5.656  1.00  0.00    +0.414 C 
ATOM      5  O   UNL     1      17.336 -20.999   6.489  1.00  0.00    -0.224 OA
ATOM      6  H   UNL     1      14.884 -20.613   4.562  1.00  0.00    +0.176 HD
ENDROOT
BRANCH   1   7
ATOM      7  C   UNL     1      14.315 -18.182   5.104  1.00  0.00    +0.075 A 
ATOM      8  C   UNL     1      14.163 -18.026   3.729  1.00  0.00    +0.108 A 
ATOM      9  S   UNL     1      12.809 -17.091   3.318  1.00  0.00    -0.126 S 
ATOM     10  C   UNL     1      12.380 -16.861   4.949  1.00  0.00    +0.068 A 
ATOM     11  C   UNL     1      13.262 -17.487   5.803  1.00  0.00    +0.028 A 
BRANCH   8  12
ATOM     12  N   UNL     1      15.010 -18.549   2.761  1.00  0.00    -0.313 N 
ATOM     13  C   UNL     1      15.458 -17.933   1.609  1.00  0.00    +0.256 C 
ATOM     14  O   UNL     1      15.143 -16.828   1.182  1.00  0.00    -0.269 OA
ATOM     15  H   UNL     1      15.277 -19.518   2.930  1.00  0.00    +0.171 HD
BRANCH  13  16
ATOM     16  C   UNL     1      16.410 -18.747   0.792  1.00  0.00    +0.040 A 
ATOM     17  N   UNL     1      19.814 -21.564  -2.320  1.00  0.00    -0.192 NA
ATOM     18  C   UNL     1      19.085 -20.957  -1.653  1.00  0.00    +0.099 C 
ATOM     19  C   UNL     1      18.182 -20.208  -0.827  1.00  0.00    +0.052 A 
ATOM     20  C   UNL     1      18.097 -20.476   0.544  1.00  0.00    +0.020 A 
ATOM     21  C   UNL     1      17.389 -19.201  -1.386  1.00  0.00    +0.020 A 
ATOM     22  C   UNL     1      17.218 -19.746   1.354  1.00  0.00    +0.015 A 
ATOM     23  C   UNL     1      16.510 -18.473  -0.579  1.00  0.00    +0.015 A 
ENDBRANCH  13  16
ENDBRANCH   8  12
ENDBRANCH   1   7
BRANCH   4  24
ATOM     24  O   UNL     1      16.260 -22.306   4.961  1.00  0.00    -0.449 OA
BRANCH  24  25
ATOM     25  C   UNL     1      17.468 -23.001   4.626  1.00  0.00    +0.238 C 
BRANCH  25  26
ATOM     26  C   UNL     1      17.661 -23.041   3.137  1.00  0.00    +0.027 C 
ATOM     27  C   UNL     1      16.526 -23.352   2.194  1.00  0.00    +0.007 C 
ATOM     28  C   UNL     1      17.651 -24.337   2.366  1.00  0.00    +0.007 C 
ENDBRANCH  25  26
ENDBRANCH  24  25
ENDBRANCH   4  24
TORSDOF 6
ENDMDL
MODEL 2
REMARK VINA RESULT:    -8.290      3.482      7.616
REMARK INTER + INTRA:         -12.076
REMARK INTER:                 -10.964
REMARK INTRA:                  -1.112
REMARK UNBOUND:                -0.879
REMARK SMILES N#Cc1ccc(C(=O)Nc2sccc2C(=O)NC(=O)OCC2CC2)cc1
REMARK SMILES IDX 15 1 16 2 17 3 18 4 19 5 14 7 10 8 11 9 12 10 13 11 9 12
REMARK SMILES IDX 7 13 8 14 6 16 1 17 2 18 3 19 4 20 26 21 5 22 25 23 20 24
REMARK SMILES IDX 21 25 22 26 23 27 24 28
REMARK H PARENT 17 6 9 15
ROOT
ATOM      1  C   UNL     1      16.080 -23.839  -0.204  1.00  0.00    +0.263 C 
ATOM      2  O   UNL     1      14.903 -24.191  -0.193  1.00  0.00    -0.269 OA
ATOM      3  N   UNL     1      16.584 -22.821  -0.978  1.00  0.00    -0.257 N 
ATOM      4  C   UNL     1      15.856 -22.049  -1.833  1.00  0.00    +0.414 C 
ATOM      5  O   UNL     1      14.648 -22.054  -2.002  1.00  0.00    -0.224 OA
ATOM      6  H   UNL     1      17.571 -22.638  -1.006  1.00  0.00    +0.176 HD
ENDROOT
BRANCH   1   7
ATOM      7  C   UNL     1      17.074 -24.532   0.635  1.00  0.00    +0.075 A 
ATOM      8  C   UNL     1      17.264 -24.198   1.973  1.00  0.00    +0.108 A 
ATOM      9  S   UNL     1      18.469 -25.130   2.720  1.00  0.00    -0.126 S 
ATOM     10  C   UNL     1      18.778 -26.007   1.294  1.00  0.00    +0.068 A 
ATOM     11  C   UNL     1      17.975 -25.593   0.255  1.00  0.00    +0.028 A 
BRANCH   8  12
ATOM     12  N   UNL     1      16.577 -23.207   2.661  1.00  0.00    -0.313 N 
ATOM     13  C   UNL     1      17.044 -21.965   3.042  1.00  0.00    +0.256 C 
ATOM     14  O   UNL     1      18.177 -21.519   2.908  1.00  0.00    -0.269 OA
ATOM     15  H   UNL     1      15.635 -23.479   2.939  1.00  0.00    +0.171 HD
BRANCH  13  16
ATOM     16  C   UNL     1      16.035 -21.099   3.728  1.00  0.00    +0.040 A 
ATOM     17  N   UNL     1      12.352 -18.127   6.338  1.00  0.00    -0.192 NA
ATOM     18  C   UNL     1      13.144 -18.766   5.781  1.00  0.00    +0.099 C 
ATOM     19  C   UNL     1      14.122 -19.555   5.089  1.00  0.00    +0.052 A 
ATOM     20  C   UNL     1      14.938 -18.968   4.115  1.00  0.00    +0.020 A 
ATOM     21  C   UNL     1      14.271 -20.912   5.390  1.00  0.00    +0.020 A 
ATOM     22  C   UNL     1      15.895 -19.734   3.440  1.00  0.00    +0.015 A 
ATOM     23  C   UNL     1      15.225 -21.679   4.716  1.00  0.00    +0.015 A 
ENDBRANCH  13  16
ENDBRANCH   8  12
ENDBRANCH   1   7
BRANCH   4  24
ATOM     24  O   UNL     1      16.716 -21.223  -2.485  1.00  0.00    -0.449 OA
BRANCH  24  25
ATOM     25  C   UNL     1      17.534 -20.430  -1.614  1.00  0.00    +0.238 C 
BRANCH  25  26
ATOM     26  C   UNL     1      16.807 -19.185  -1.194  1.00  0.00    +0.027 C 
ATOM     27  C   UNL     1      17.013 -18.561   0.164  1.00  0.00    +0.007 C 
ATOM     28  C   UNL     1      15.699 -19.216  -0.170  1.00  0.00    +0.007 C 
ENDBRANCH  25  26
ENDBRANCH  24  25
ENDBRANCH   4  24
TORSDOF 6
ENDMDL
MODEL 3
REMARK VINA RESULT:    -8.258      2.352      4.631
REMARK INTER + INTRA:         -12.033
REMARK INTER:                 -10.714
REMARK INTRA:                  -1.319
REMARK UNBOUND:                -0.879
REMARK SMILES N#Cc1ccc(C(=O)Nc2sccc2C(=O)NC(=O)OCC2CC2)cc1
REMARK SMILES IDX 15 1 16 2 17 3 18 4 19 5 14 7 10 8 11 9 12 10 13 11 9 12
REMARK SMILES IDX 7 13 8 14 6 16 1 17 2 18 3 19 4 20 26 21 5 22 25 23 20 24
REMARK SMILES IDX 21 25 22 26 23 27 24 28
REMARK H PARENT 17 6 9 15
ROOT
ATOM      1  C   UNL     1      15.307 -17.956   1.388  1.00  0.00    +0.263 C 
ATOM      2  O   UNL     1      15.750 -16.911   0.919  1.00  0.00    -0.269 OA
ATOM      3  N   UNL     1      15.376 -19.182   0.771  1.00  0.00    -0.257 N 
ATOM      4  C   UNL     1      15.953 -19.420  -0.441  1.00  0.00    +0.414 C 
ATOM      5  O   UNL     1      16.574 -18.638  -1.141  1.00  0.00    -0.224 OA
ATOM      6  H   UNL     1      14.919 -19.983   1.167  1.00  0.00    +0.176 HD
ENDROOT
BRANCH   1   7
ATOM      7  C   UNL     1      14.623 -17.956   2.694  1.00  0.00    +0.075 A 
ATOM      8  C   UNL     1      15.002 -18.817   3.720  1.00  0.00    +0.108 A 
ATOM      9  S   UNL     1      14.058 -18.633   5.117  1.00  0.00    -0.126 S 
ATOM     10  C   UNL     1      13.116 -17.406   4.408  1.00  0.00    +0.068 A 
ATOM     11  C   UNL     1      13.511 -17.139   3.116  1.00  0.00    +0.028 A 
BRANCH   8  12
ATOM     12  N   UNL     1      16.026 -19.753   3.650  1.00  0.00    -0.313 N 
ATOM     13  C   UNL     1      15.954 -21.105   3.918  1.00  0.00    +0.256 C 
ATOM     14  O   UNL     1      14.989 -21.733   4.337  1.00  0.00    -0.269 OA
ATOM     15  H   UNL     1      16.932 -19.352   3.410  1.00  0.00    +0.171 HD
BRANCH  13  16
ATOM     16  C   UNL     1      17.227 -21.857   3.697  1.00  0.00    +0.040 A 
ATOM     17  N   UNL     1      21.886 -24.431   2.760  1.00  0.00    -0.192 NA
ATOM     18  C   UNL     1      20.888 -23.876   2.961  1.00  0.00    +0.099 C 
ATOM     19  C   UNL     1      19.652 -23.191   3.211  1.00  0.00    +0.052 A 
ATOM     20  C   UNL     1      18.819 -23.603   4.257  1.00  0.00    +0.020 A 
ATOM     21  C   UNL     1      19.278 -22.105   2.414  1.00  0.00    +0.020 A 
ATOM     22  C   UNL     1      17.613 -22.937   4.505  1.00  0.00    +0.015 A 
ATOM     23  C   UNL     1      18.073 -21.439   2.659  1.00  0.00    +0.015 A 
ENDBRANCH  13  16
ENDBRANCH   8  12
ENDBRANCH   1   7
BRANCH   4  24
ATOM     24  O   UNL     1      15.738 -20.725  -0.756  1.00  0.00    -0.449 OA
BRANCH  24  25
ATOM     25  C   UNL     1      16.928 -21.525  -0.768  1.00  0.00    +0.238 C 
BRANCH  25  26
ATOM     26  C   UNL     1      16.582 -22.987  -0.771  1.00  0.00    +0.027 C 
ATOM     27  C   UNL     1      16.118 -23.698   0.476  1.00  0.00    +0.007 C 
ATOM     28  C   UNL     1      17.467 -24.017  -0.113  1.00  0.00    +0.007 C 
ENDBRANCH  25  26
ENDBRANCH  24  25
ENDBRANCH   4  24
TORSDOF 6
ENDMDL
MODEL 4
REMARK VINA RESULT:    -8.102      2.775      5.401
REMARK INTER + INTRA:         -11.822
REMARK INTER:                 -10.755
REMARK INTRA:                  -1.067
REMARK UNBOUND:                -0.879
REMARK SMILES N#Cc1ccc(C(=O)Nc2sccc2C(=O)NC(=O)OCC2CC2)cc1
REMARK SMILES IDX 15 1 16 2 17 3 18 4 19 5 14 7 10 8 11 9 12 10 13 11 9 12
REMARK SMILES IDX 7 13 8 14 6 16 1 17 2 18 3 19 4 20 26 21 5 22 25 23 20 24
REMARK SMILES IDX 21 25 22 26 23 27 24 28
REMARK H PARENT 17 6 9 15
ROOT
ATOM      1  C   UNL     1      16.008 -19.078   2.192  1.00  0.00    +0.263 C 
ATOM      2  O   UNL     1      16.731 -18.873   1.220  1.00  0.00    -0.269 OA
ATOM      3  N   UNL     1      14.994 -18.245   2.602  1.00  0.00    -0.257 N 
ATOM      4  C   UNL     1      14.636 -17.083   1.988  1.00  0.00    +0.414 C 
ATOM      5  O   UNL     1      15.069 -16.622   0.946  1.00  0.00    -0.224 OA
ATOM      6  H   UNL     1      14.495 -18.426   3.455  1.00  0.00    +0.176 HD
ENDROOT
BRANCH   1   7
ATOM      7  C   UNL     1      16.207 -20.275   3.030  1.00  0.00    +0.075 A 
ATOM      8  C   UNL     1      16.930 -21.375   2.576  1.00  0.00    +0.108 A 
ATOM      9  S   UNL     1      17.009 -22.627   3.717  1.00  0.00    -0.126 S 
ATOM     10  C   UNL     1      16.086 -21.753   4.850  1.00  0.00    +0.068 A 
ATOM     11  C   UNL     1      15.716 -20.518   4.364  1.00  0.00    +0.028 A 
BRANCH   8  12
ATOM     12  N   UNL     1      17.528 -21.487   1.328  1.00  0.00    -0.313 N 
ATOM     13  C   UNL     1      18.878 -21.481   1.035  1.00  0.00    +0.256 C 
ATOM     14  O   UNL     1      19.810 -21.308   1.811  1.00  0.00    -0.269 OA
ATOM     15  H   UNL     1      16.863 -21.533   0.557  1.00  0.00    +0.171 HD
BRANCH  13  16
ATOM     16  C   UNL     1      19.206 -21.676  -0.411  1.00  0.00    +0.040 A 
ATOM     17  N   UNL     1      20.255 -22.232  -5.683  1.00  0.00    -0.192 NA
ATOM     18  C   UNL     1      20.030 -22.110  -4.552  1.00  0.00    +0.099 C 
ATOM     19  C   UNL     1      19.752 -21.961  -3.153  1.00  0.00    +0.052 A 
ATOM     20  C   UNL     1      20.552 -22.609  -2.204  1.00  0.00    +0.020 A 
ATOM     21  C   UNL     1      18.686 -21.161  -2.729  1.00  0.00    +0.020 A 
ATOM     22  C   UNL     1      20.285 -22.464  -0.837  1.00  0.00    +0.015 A 
ATOM     23  C   UNL     1      18.417 -21.017  -1.365  1.00  0.00    +0.015 A 
ENDBRANCH  13  16
ENDBRANCH   8  12
ENDBRANCH   1   7
BRANCH   4  24
ATOM     24  O   UNL     1      13.664 -16.499   2.738  1.00  0.00    -0.449 OA
BRANCH  24  25
ATOM     25  C   UNL     1      12.868 -17.427   3.486  1.00  0.00    +0.238 C 
BRANCH  25  26
ATOM     26  C   UNL     1      12.905 -17.097   4.951  1.00  0.00    +0.027 C 
ATOM     27  C   UNL     1      14.091 -17.442   5.816  1.00  0.00    +0.007 C 
ATOM     28  C   UNL     1      12.784 -18.161   6.013  1.00  0.00    +0.007 C 
ENDBRANCH  25  26
ENDBRANCH  24  25
ENDBRANCH   4  24
TORSDOF 6
ENDMDL
MODEL 5
REMARK VINA RESULT:    -8.092      3.062      7.138
REMARK INTER + INTRA:         -11.809
REMARK INTER:                 -10.684
REMARK INTRA:                  -1.125
REMARK UNBOUND:                -0.879
REMARK SMILES N#Cc1ccc(C(=O)Nc2sccc2C(=O)NC(=O)OCC2CC2)cc1
REMARK SMILES IDX 15 1 16 2 17 3 18 4 19 5 14 7 10 8 11 9 12 10 13 11 9 12
REMARK SMILES IDX 7 13 8 14 6 16 1 17 2 18 3 19 4 20 26 21 5 22 25 23 20 24
REMARK SMILES IDX 21 25 22 26 23 27 24 28
REMARK H PARENT 17 6 9 15
ROOT
ATOM      1  C   UNL     1      17.198 -23.301   1.563  1.00  0.00    +0.263 C 
ATOM      2  O   UNL     1      16.049 -23.725   1.668  1.00  0.00    -0.269 OA
ATOM      3  N   UNL     1      17.742 -22.792   0.408  1.00  0.00    -0.257 N 
ATOM      4  C   UNL     1      17.088 -22.672  -0.782  1.00  0.00    +0.414 C 
ATOM      5  O   UNL     1      15.914 -22.901  -1.017  1.00  0.00    -0.224 OA
ATOM      6  H   UNL     1      18.713 -22.541   0.366  1.00  0.00    +0.176 HD
ENDROOT
BRANCH   1   7
ATOM      7  C   UNL     1      18.112 -23.333   2.719  1.00  0.00    +0.075 A 
ATOM      8  C   UNL     1      17.926 -22.505   3.823  1.00  0.00    +0.108 A 
ATOM      9  S   UNL     1      19.113 -22.722   5.016  1.00  0.00    -0.126 S 
ATOM     10  C   UNL     1      19.913 -23.919   4.107  1.00  0.00    +0.068 A 
ATOM     11  C   UNL     1      19.285 -24.152   2.903  1.00  0.00    +0.028 A 
BRANCH   8  12
ATOM     12  N   UNL     1      16.904 -21.578   3.972  1.00  0.00    -0.313 N 
ATOM     13  C   UNL     1      15.974 -21.502   4.990  1.00  0.00    +0.256 C 
ATOM     14  O   UNL     1      15.827 -22.279   5.927  1.00  0.00    -0.269 OA
ATOM     15  H   UNL     1      16.834 -20.917   3.199  1.00  0.00    +0.171 HD
BRANCH  13  16
ATOM     16  C   UNL     1      15.029 -20.347   4.892  1.00  0.00    +0.040 A 
ATOM     17  N   UNL     1      11.691 -16.131   4.349  1.00  0.00    -0.192 NA
ATOM     18  C   UNL     1      12.407 -17.037   4.463  1.00  0.00    +0.099 C 
ATOM     19  C   UNL     1      13.292 -18.157   4.605  1.00  0.00    +0.052 A 
ATOM     20  C   UNL     1      13.139 -19.043   5.678  1.00  0.00    +0.020 A 
ATOM     21  C   UNL     1      14.309 -18.373   3.670  1.00  0.00    +0.020 A 
ATOM     22  C   UNL     1      13.999 -20.137   5.820  1.00  0.00    +0.015 A 
ATOM     23  C   UNL     1      15.170 -19.465   3.811  1.00  0.00    +0.015 A 
ENDBRANCH  13  16
ENDBRANCH   8  12
ENDBRANCH   1   7
BRANCH   4  24
ATOM     24  O   UNL     1      17.980 -22.221  -1.703  1.00  0.00    -0.449 OA
BRANCH  24  25
ATOM     25  C   UNL     1      18.509 -20.920  -1.412  1.00  0.00    +0.238 C 
BRANCH  25  26
ATOM     26  C   UNL     1      17.421 -19.885  -1.450  1.00  0.00    +0.027 C 
ATOM     27  C   UNL     1      17.720 -18.410  -1.354  1.00  0.00    +0.007 C 
ATOM     28  C   UNL     1      17.016 -19.109  -0.221  1.00  0.00    +0.007 C 
ENDBRANCH  25  26
ENDBRANCH  24  25
ENDBRANCH   4  24
TORSDOF 6
ENDMDL
MODEL 6
REMARK VINA RESULT:    -7.961      3.503      6.043
REMARK INTER + INTRA:         -11.632
REMARK INTER:                 -10.539
REMARK INTRA:                  -1.093
REMARK UNBOUND:                -0.879
REMARK SMILES N#Cc1ccc(C(=O)Nc2sccc2C(=O)NC(=O)OCC2CC2)cc1
REMARK SMILES IDX 15 1 16 2 17 3 18 4 19 5 14 7 10 8 11 9 12 10 13 11 9 12
REMARK SMILES IDX 7 13 8 14 6 16 1 17 2 18 3 19 4 20 26 21 5 22 25 23 20 24
REMARK SMILES IDX 21 25 22 26 23 27 24 28
REMARK H PARENT 17 6 9 15
ROOT
ATOM      1  C   UNL     1      16.334 -20.147   3.698  1.00  0.00    +0.263 C 
ATOM      2  O   UNL     1      16.640 -21.278   4.068  1.00  0.00    -0.269 OA
ATOM      3  N   UNL     1      15.827 -19.166   4.516  1.00  0.00    -0.257 N 
ATOM      4  C   UNL     1      15.601 -19.298   5.853  1.00  0.00    +0.414 C 
ATOM      5  O   UNL     1      15.878 -20.245   6.570  1.00  0.00    -0.224 OA
ATOM      6  H   UNL     1      15.518 -18.290   4.136  1.00  0.00    +0.176 HD
ENDROOT
BRANCH   1   7
ATOM      7  C   UNL     1      16.480 -19.762   2.282  1.00  0.00    +0.075 A 
ATOM      8  C   UNL     1      17.584 -20.151   1.527  1.00  0.00    +0.108 A 
ATOM      9  S   UNL     1      17.526 -19.576  -0.067  1.00  0.00    -0.126 S 
ATOM     10  C   UNL     1      16.037 -18.792   0.191  1.00  0.00    +0.068 A 
ATOM     11  C   UNL     1      15.587 -18.961   1.481  1.00  0.00    +0.028 A 
BRANCH   8  12
ATOM     12  N   UNL     1      18.647 -20.915   1.989  1.00  0.00    -0.313 N 
ATOM     13  C   UNL     1      18.937 -22.230   1.685  1.00  0.00    +0.256 C 
ATOM     14  O   UNL     1      18.275 -23.002   1.001  1.00  0.00    -0.269 OA
ATOM     15  H   UNL     1      19.239 -20.429   2.663  1.00  0.00    +0.171 HD
BRANCH  13  16
ATOM     16  C   UNL     1      20.193 -22.755   2.305  1.00  0.00    +0.040 A 
ATOM     17  N   UNL     1      24.615 -24.748   4.690  1.00  0.00    -0.192 NA
ATOM     18  C   UNL     1      23.664 -24.322   4.178  1.00  0.00    +0.099 C 
ATOM     19  C   UNL     1      22.490 -23.795   3.545  1.00  0.00    +0.052 A 
ATOM     20  C   UNL     1      22.590 -23.138   2.313  1.00  0.00    +0.020 A 
ATOM     21  C   UNL     1      21.239 -23.942   4.151  1.00  0.00    +0.020 A 
ATOM     22  C   UNL     1      21.447 -22.623   1.691  1.00  0.00    +0.015 A 
ATOM     23  C   UNL     1      20.096 -23.427   3.532  1.00  0.00    +0.015 A 
ENDBRANCH  13  16
ENDBRANCH   8  12
ENDBRANCH   1   7
BRANCH   4  24
ATOM     24  O   UNL     1      15.010 -18.155   6.290  1.00  0.00    -0.449 OA
BRANCH  24  25
ATOM     25  C   UNL     1      13.610 -18.071   5.991  1.00  0.00    +0.238 C 
BRANCH  25  26
ATOM     26  C   UNL     1      13.319 -16.861   5.151  1.00  0.00    +0.027 C 
ATOM     27  C   UNL     1      11.981 -16.655   4.485  1.00  0.00    +0.007 C 
ATOM     28  C   UNL     1      13.200 -16.942   3.649  1.00  0.00    +0.007 C 
ENDBRANCH  25  26
ENDBRANCH  24  25
ENDBRANCH   4  24
TORSDOF 6
ENDMDL
MODEL 7
REMARK VINA RESULT:    -7.921      3.695      8.073
REMARK INTER + INTRA:         -11.578
REMARK INTER:                 -10.651
REMARK INTRA:                  -0.927
REMARK UNBOUND:                -0.879
REMARK SMILES N#Cc1ccc(C(=O)Nc2sccc2C(=O)NC(=O)OCC2CC2)cc1
REMARK SMILES IDX 15 1 16 2 17 3 18 4 19 5 14 7 10 8 11 9 12 10 13 11 9 12
REMARK SMILES IDX 7 13 8 14 6 16 1 17 2 18 3 19 4 20 26 21 5 22 25 23 20 24
REMARK SMILES IDX 21 25 22 26 23 27 24 28
REMARK H PARENT 17 6 9 15
ROOT
ATOM      1  C   UNL     1      17.941 -22.373  -0.153  1.00  0.00    +0.263 C 
ATOM      2  O   UNL     1      17.032 -21.597   0.131  1.00  0.00    -0.269 OA
ATOM      3  N   UNL     1      18.913 -22.130  -1.094  1.00  0.00    -0.257 N 
ATOM      4  C   UNL     1      19.017 -20.993  -1.840  1.00  0.00    +0.414 C 
ATOM      5  O   UNL     1      18.348 -19.977  -1.754  1.00  0.00    -0.224 OA
ATOM      6  H   UNL     1      19.579 -22.840  -1.340  1.00  0.00    +0.176 HD
ENDROOT
BRANCH   1   7
ATOM      7  C   UNL     1      18.038 -23.683   0.516  1.00  0.00    +0.075 A 
ATOM      8  C   UNL     1      17.454 -23.917   1.758  1.00  0.00    +0.108 A 
ATOM      9  S   UNL     1      17.714 -25.496   2.321  1.00  0.00    -0.126 S 
ATOM     10  C   UNL     1      18.610 -25.921   0.938  1.00  0.00    +0.068 A 
ATOM     11  C   UNL     1      18.715 -24.870   0.053  1.00  0.00    +0.028 A 
BRANCH   8  12
ATOM     12  N   UNL     1      16.740 -22.986   2.500  1.00  0.00    -0.313 N 
ATOM     13  C   UNL     1      17.187 -22.234   3.568  1.00  0.00    +0.256 C 
ATOM     14  O   UNL     1      18.283 -22.290   4.114  1.00  0.00    -0.269 OA
ATOM     15  H   UNL     1      15.761 -22.906   2.224  1.00  0.00    +0.171 HD
BRANCH  13  16
ATOM     16  C   UNL     1      16.183 -21.275   4.124  1.00  0.00    +0.040 A 
ATOM     17  N   UNL     1      12.531 -17.934   6.294  1.00  0.00    -0.192 NA
ATOM     18  C   UNL     1      13.316 -18.652   5.830  1.00  0.00    +0.099 C 
ATOM     19  C   UNL     1      14.287 -19.538   5.256  1.00  0.00    +0.052 A 
ATOM     20  C   UNL     1      15.026 -19.140   4.136  1.00  0.00    +0.020 A 
ATOM     21  C   UNL     1      14.504 -20.801   5.816  1.00  0.00    +0.020 A 
ATOM     22  C   UNL     1      15.975 -20.002   3.573  1.00  0.00    +0.015 A 
ATOM     23  C   UNL     1      15.450 -21.663   5.254  1.00  0.00    +0.015 A 
ENDBRANCH  13  16
ENDBRANCH   8  12
ENDBRANCH   1   7
BRANCH   4  24
ATOM     24  O   UNL     1      20.039 -21.165  -2.720  1.00  0.00    -0.449 OA
BRANCH  24  25
ATOM     25  C   UNL     1      19.770 -22.133  -3.742  1.00  0.00    +0.238 C 
BRANCH  25  26
ATOM     26  C   UNL     1      20.672 -21.920  -4.924  1.00  0.00    +0.027 C 
ATOM     27  C   UNL     1      20.219 -21.160  -6.146  1.00  0.00    +0.007 C 
ATOM     28  C   UNL     1      20.461 -22.644  -6.230  1.00  0.00    +0.007 C 
ENDBRANCH  25  26
ENDBRANCH  24  25
ENDBRANCH   4  24
TORSDOF 6
ENDMDL
MODEL 8
REMARK VINA RESULT:    -7.810      1.838      4.617
REMARK INTER + INTRA:         -11.428
REMARK INTER:                 -10.818
REMARK INTRA:                  -0.610
REMARK UNBOUND:                -0.879
REMARK SMILES N#Cc1ccc(C(=O)Nc2sccc2C(=O)NC(=O)OCC2CC2)cc1
REMARK SMILES IDX 15 1 16 2 17 3 18 4 19 5 14 7 10 8 11 9 12 10 13 11 9 12
REMARK SMILES IDX 7 13 8 14 6 16 1 17 2 18 3 19 4 20 26 21 5 22 25 23 20 24
REMARK SMILES IDX 21 25 22 26 23 27 24 28
REMARK H PARENT 17 6 9 15
ROOT
ATOM      1  C   UNL     1      14.389 -17.375   2.600  1.00  0.00    +0.263 C 
ATOM      2  O   UNL     1      14.240 -16.314   1.998  1.00  0.00    -0.269 OA
ATOM      3  N   UNL     1      15.120 -18.442   2.135  1.00  0.00    -0.257 N 
ATOM      4  C   UNL     1      15.793 -18.477   0.951  1.00  0.00    +0.414 C 
ATOM      5  O   UNL     1      15.945 -17.572   0.149  1.00  0.00    -0.224 OA
ATOM      6  H   UNL     1      15.133 -19.312   2.636  1.00  0.00    +0.176 HD
ENDROOT
BRANCH   1   7
ATOM      7  C   UNL     1      13.745 -17.585   3.909  1.00  0.00    +0.075 A 
ATOM      8  C   UNL     1      13.998 -18.719   4.676  1.00  0.00    +0.108 A 
ATOM      9  S   UNL     1      13.131 -18.734   6.134  1.00  0.00    -0.126 S 
ATOM     10  C   UNL     1      12.391 -17.239   5.796  1.00  0.00    +0.068 A 
ATOM     11  C   UNL     1      12.796 -16.731   4.581  1.00  0.00    +0.028 A 
BRANCH   8  12
ATOM     12  N   UNL     1      14.848 -19.758   4.323  1.00  0.00    -0.313 N 
ATOM     13  C   UNL     1      15.926 -20.246   5.034  1.00  0.00    +0.256 C 
ATOM     14  O   UNL     1      16.386 -19.814   6.085  1.00  0.00    -0.269 OA
ATOM     15  H   UNL     1      14.651 -20.155   3.405  1.00  0.00    +0.171 HD
BRANCH  13  16
ATOM     16  C   UNL     1      16.615 -21.415   4.406  1.00  0.00    +0.040 A 
ATOM     17  N   UNL     1      19.230 -25.649   2.298  1.00  0.00    -0.192 NA
ATOM     18  C   UNL     1      18.668 -24.742   2.753  1.00  0.00    +0.099 C 
ATOM     19  C   UNL     1      17.974 -23.619   3.314  1.00  0.00    +0.052 A 
ATOM     20  C   UNL     1      16.791 -23.157   2.724  1.00  0.00    +0.020 A 
ATOM     21  C   UNL     1      18.471 -22.985   4.457  1.00  0.00    +0.020 A 
ATOM     22  C   UNL     1      16.110 -22.063   3.269  1.00  0.00    +0.015 A 
ATOM     23  C   UNL     1      17.791 -21.891   5.002  1.00  0.00    +0.015 A 
ENDBRANCH  13  16
ENDBRANCH   8  12
ENDBRANCH   1   7
BRANCH   4  24
ATOM     24  O   UNL     1      16.309 -19.726   0.802  1.00  0.00    -0.449 OA
BRANCH  24  25
ATOM     25  C   UNL     1      17.597 -19.753   0.172  1.00  0.00    +0.238 C 
BRANCH  25  26
ATOM     26  C   UNL     1      18.057 -21.168  -0.031  1.00  0.00    +0.027 C 
ATOM     27  C   UNL     1      19.391 -21.654   0.479  1.00  0.00    +0.007 C 
ATOM     28  C   UNL     1      19.158 -21.517  -1.002  1.00  0.00    +0.007 C 
ENDBRANCH  25  26
ENDBRANCH  24  25
ENDBRANCH   4  24
TORSDOF 6
ENDMDL
MODEL 9
REMARK VINA RESULT:    -7.738      3.139      5.803
REMARK INTER + INTRA:         -11.331
REMARK INTER:                 -10.233
REMARK INTRA:                  -1.098
REMARK UNBOUND:                -0.879
REMARK SMILES N#Cc1ccc(C(=O)Nc2sccc2C(=O)NC(=O)OCC2CC2)cc1
REMARK SMILES IDX 15 1 16 2 17 3 18 4 19 5 14 7 10 8 11 9 12 10 13 11 9 12
REMARK SMILES IDX 7 13 8 14 6 16 1 17 2 18 3 19 4 20 26 21 5 22 25 23 20 24
REMARK SMILES IDX 21 25 22 26 23 27 24 28
REMARK H PARENT 17 6 9 15
ROOT
ATOM      1  C   UNL     1      16.591 -21.009   3.522  1.00  0.00    +0.263 C 
ATOM      2  O   UNL     1      17.492 -21.808   3.767  1.00  0.00    -0.269 OA
ATOM      3  N   UNL     1      15.562 -20.702   4.380  1.00  0.00    -0.257 N 
ATOM      4  C   UNL     1      15.395 -21.228   5.626  1.00  0.00    +0.414 C 
ATOM      5  O   UNL     1      16.147 -21.974   6.231  1.00  0.00    -0.224 OA
ATOM      6  H   UNL     1      14.811 -20.105   4.087  1.00  0.00    +0.176 HD
ENDROOT
BRANCH   1   7
ATOM      7  C   UNL     1      16.547 -20.312   2.224  1.00  0.00    +0.075 A 
ATOM      8  C   UNL     1      16.969 -20.927   1.048  1.00  0.00    +0.108 A 
ATOM      9  S   UNL     1      16.829 -19.918  -0.309  1.00  0.00    -0.126 S 
ATOM     10  C   UNL     1      16.206 -18.633   0.618  1.00  0.00    +0.068 A 
ATOM     11  C   UNL     1      16.108 -18.966   1.951  1.00  0.00    +0.028 A 
BRANCH   8  12
ATOM     12  N   UNL     1      17.469 -22.218   0.948  1.00  0.00    -0.313 N 
ATOM     13  C   UNL     1      16.875 -23.310   0.348  1.00  0.00    +0.256 C 
ATOM     14  O   UNL     1      15.759 -23.371  -0.155  1.00  0.00    -0.269 OA
ATOM     15  H   UNL     1      18.362 -22.349   1.421  1.00  0.00    +0.171 HD
BRANCH  13  16
ATOM     16  C   UNL     1      17.699 -24.558   0.360  1.00  0.00    +0.040 A 
ATOM     17  N   UNL     1      20.502 -29.178   0.414  1.00  0.00    -0.192 NA
ATOM     18  C   UNL     1      19.899 -28.188   0.401  1.00  0.00    +0.099 C 
ATOM     19  C   UNL     1      19.154 -26.962   0.385  1.00  0.00    +0.052 A 
ATOM     20  C   UNL     1      19.805 -25.747   0.143  1.00  0.00    +0.020 A 
ATOM     21  C   UNL     1      17.773 -26.976   0.604  1.00  0.00    +0.020 A 
ATOM     22  C   UNL     1      19.081 -24.549   0.125  1.00  0.00    +0.015 A 
ATOM     23  C   UNL     1      17.049 -25.780   0.587  1.00  0.00    +0.015 A 
ENDBRANCH  13  16
ENDBRANCH   8  12
ENDBRANCH   1   7
BRANCH   4  24
ATOM     24  O   UNL     1      14.221 -20.758   6.122  1.00  0.00    -0.449 OA
BRANCH  24  25
ATOM     25  C   UNL     1      13.509 -19.900   5.221  1.00  0.00    +0.238 C 
BRANCH  25  26
ATOM     26  C   UNL     1      13.177 -18.594   5.884  1.00  0.00    +0.027 C 
ATOM     27  C   UNL     1      12.403 -17.512   5.172  1.00  0.00    +0.007 C 
ATOM     28  C   UNL     1      13.859 -17.306   5.494  1.00  0.00    +0.007 C 
ENDBRANCH  25  26
ENDBRANCH  24  25
ENDBRANCH   4  24
TORSDOF 6
ENDMDL
