MODEL 1
REMARK VINA RESULT:    -8.219      0.000      0.000
REMARK INTER + INTRA:         -11.484
REMARK INTER:                 -10.861
REMARK INTRA:                  -0.622
REMARK UNBOUND:                -0.622
REMARK SMILES CC1(c2ccc(S(N)(=O)=O)cc2)NC(=O)N(CC(=O)C2CC2)C1=O
REMARK SMILES IDX 1 1 2 2 13 3 14 4 15 5 16 6 23 7 24 8 3 10 4 11 12 12 5 13
REMARK SMILES IDX 11 14 6 15 7 16 9 17 10 18 8 19 17 22 18 23 19 24 20 25
REMARK SMILES IDX 21 26 22 27
REMARK H PARENT 13 9 8 20 8 21
ROOT
ATOM      1  C   UNL     1      17.808 -23.645   3.924  1.00  0.00    +0.051 C 
ATOM      2  C   UNL     1      17.090 -22.790   2.877  1.00  0.00    +0.144 C 
ATOM      3  N   UNL     1      16.226 -23.605   2.044  1.00  0.00    -0.319 N 
ATOM      4  C   UNL     1      16.542 -23.505   0.712  1.00  0.00    +0.325 C 
ATOM      5  O   UNL     1      15.859 -23.956  -0.192  1.00  0.00    -0.248 OA
ATOM      6  N   UNL     1      17.706 -22.819   0.590  1.00  0.00    -0.254 N 
ATOM      7  C   UNL     1      18.124 -22.363   1.807  1.00  0.00    +0.261 C 
ATOM      8  O   UNL     1      19.144 -21.713   2.009  1.00  0.00    -0.271 OA
ATOM      9  H   UNL     1      15.305 -23.926   2.311  1.00  0.00    +0.166 HD
ENDROOT
BRANCH   2  10
ATOM     10  C   UNL     1      16.281 -21.646   3.488  1.00  0.00    -0.013 A 
ATOM     11  C   UNL     1      16.265 -20.352   2.934  1.00  0.00    +0.008 A 
ATOM     12  C   UNL     1      15.492 -21.882   4.633  1.00  0.00    +0.008 A 
ATOM     13  C   UNL     1      15.499 -19.330   3.504  1.00  0.00    +0.022 A 
ATOM     14  C   UNL     1      14.722 -20.867   5.206  1.00  0.00    +0.022 A 
ATOM     15  C   UNL     1      14.724 -19.597   4.631  1.00  0.00    +0.082 A 
BRANCH  15  16
ATOM     16  S   UNL     1      13.747 -18.304   5.350  1.00  0.00    +0.238 S 
ATOM     17  O   UNL     1      14.441 -17.797   6.510  1.00  0.00    -0.207 OA
ATOM     18  O   UNL     1      12.371 -18.738   5.395  1.00  0.00    -0.207 OA
BRANCH  16  19
ATOM     19  N   UNL     1      13.870 -17.101   4.177  1.00  0.00    -0.225 NA
ATOM     20  H   UNL     1      13.368 -17.326   3.318  1.00  0.00    +0.137 HD
ATOM     21  H   UNL     1      14.858 -16.916   3.999  1.00  0.00    +0.137 HD
ENDBRANCH  16  19
ENDBRANCH  15  16
ENDBRANCH   2  10
BRANCH   6  22
ATOM     22  C   UNL     1      18.309 -22.465  -0.673  1.00  0.00    +0.206 C 
BRANCH  22  23
ATOM     23  C   UNL     1      17.470 -21.378  -1.327  1.00  0.00    +0.155 C 
ATOM     24  O   UNL     1      16.849 -21.511  -2.376  1.00  0.00    -0.297 OA
BRANCH  23  25
ATOM     25  C   UNL     1      17.437 -20.079  -0.599  1.00  0.00    +0.058 C 
ATOM     26  C   UNL     1      17.626 -18.788  -1.361  1.00  0.00    +0.012 C 
ATOM     27  C   UNL     1      16.283 -19.122  -0.782  1.00  0.00    +0.012 C 
ENDBRANCH  23  25
ENDBRANCH  22  23
ENDBRANCH   6  22
TORSDOF 6
ENDMDL
MODEL 2
REMARK VINA RESULT:    -7.932      2.955      6.593
REMARK INTER + INTRA:         -11.104
REMARK INTER:                 -10.667
REMARK INTRA:                  -0.437
REMARK UNBOUND:                -0.622
REMARK SMILES CC1(c2ccc(S(N)(=O)=O)cc2)NC(=O)N(CC(=O)C2CC2)C1=O
REMARK SMILES IDX 1 1 2 2 13 3 14 4 15 5 16 6 23 7 24 8 3 10 4 11 12 12 5 13
REMARK SMILES IDX 11 14 6 15 7 16 9 17 10 18 8 19 17 22 18 23 19 24 20 25
REMARK SMILES IDX 21 26 22 27
REMARK H PARENT 13 9 8 20 8 21
ROOT
ATOM      1  C   UNL     1      16.486 -22.025   5.285  1.00  0.00    +0.051 C 
ATOM      2  C   UNL     1      16.095 -20.626   4.803  1.00  0.00    +0.144 C 
ATOM      3  N   UNL     1      16.638 -19.604   5.677  1.00  0.00    -0.319 N 
ATOM      4  C   UNL     1      15.660 -18.799   6.207  1.00  0.00    +0.325 C 
ATOM      5  O   UNL     1      15.877 -17.772   6.828  1.00  0.00    -0.248 OA
ATOM      6  N   UNL     1      14.448 -19.329   5.907  1.00  0.00    -0.254 N 
ATOM      7  C   UNL     1      14.589 -20.417   5.093  1.00  0.00    +0.261 C 
ATOM      8  O   UNL     1      13.669 -21.102   4.659  1.00  0.00    -0.271 OA
ATOM      9  H   UNL     1      17.592 -19.270   5.649  1.00  0.00    +0.166 HD
ENDROOT
BRANCH   2  10
ATOM     10  C   UNL     1      16.522 -20.347   3.362  1.00  0.00    -0.013 A 
ATOM     11  C   UNL     1      17.510 -21.105   2.707  1.00  0.00    +0.008 A 
ATOM     12  C   UNL     1      15.895 -19.313   2.635  1.00  0.00    +0.008 A 
ATOM     13  C   UNL     1      17.866 -20.839   1.381  1.00  0.00    +0.022 A 
ATOM     14  C   UNL     1      16.243 -19.044   1.310  1.00  0.00    +0.022 A 
ATOM     15  C   UNL     1      17.222 -19.816   0.687  1.00  0.00    +0.082 A 
BRANCH  15  16
ATOM     16  S   UNL     1      17.668 -19.483  -0.996  1.00  0.00    +0.238 S 
ATOM     17  O   UNL     1      18.835 -20.267  -1.325  1.00  0.00    -0.207 OA
ATOM     18  O   UNL     1      17.602 -18.058  -1.216  1.00  0.00    -0.207 OA
BRANCH  16  19
ATOM     19  N   UNL     1      16.387 -20.192  -1.829  1.00  0.00    -0.225 NA
ATOM     20  H   UNL     1      15.687 -20.604  -1.211  1.00  0.00    +0.137 HD
ATOM     21  H   UNL     1      16.762 -20.879  -2.484  1.00  0.00    +0.137 HD
ENDBRANCH  16  19
ENDBRANCH  15  16
ENDBRANCH   2  10
BRANCH   6  22
ATOM     22  C   UNL     1      13.188 -18.713   6.246  1.00  0.00    +0.206 C 
BRANCH  22  23
ATOM     23  C   UNL     1      13.016 -17.457   5.405  1.00  0.00    +0.155 C 
ATOM     24  O   UNL     1      12.914 -16.322   5.858  1.00  0.00    -0.297 OA
BRANCH  23  25
ATOM     25  C   UNL     1      12.976 -17.680   3.934  1.00  0.00    +0.058 C 
ATOM     26  C   UNL     1      12.198 -16.729   3.053  1.00  0.00    +0.012 C 
ATOM     27  C   UNL     1      13.697 -16.745   2.992  1.00  0.00    +0.012 C 
ENDBRANCH  23  25
ENDBRANCH  22  23
ENDBRANCH   6  22
TORSDOF 6
ENDMDL
MODEL 3
REMARK VINA RESULT:    -7.449      1.763      3.857
REMARK INTER + INTRA:         -10.466
REMARK INTER:                  -9.815
REMARK INTRA:                  -0.652
REMARK UNBOUND:                -0.622
REMARK SMILES CC1(c2ccc(S(N)(=O)=O)cc2)NC(=O)N(CC(=O)C2CC2)C1=O
REMARK SMILES IDX 1 1 2 2 13 3 14 4 15 5 16 6 23 7 24 8 3 10 4 11 12 12 5 13
REMARK SMILES IDX 11 14 6 15 7 16 9 17 10 18 8 19 17 22 18 23 19 24 20 25
REMARK SMILES IDX 21 26 22 27
REMARK H PARENT 13 9 8 20 8 21
ROOT
ATOM      1  C   UNL     1      17.324 -18.573  -0.832  1.00  0.00    +0.051 C 
ATOM      2  C   UNL     1      17.169 -19.751   0.133  1.00  0.00    +0.144 C 
ATOM      3  N   UNL     1      18.463 -20.272   0.530  1.00  0.00    -0.319 N 
ATOM      4  C   UNL     1      18.602 -21.604   0.227  1.00  0.00    +0.325 C 
ATOM      5  O   UNL     1      19.524 -22.303   0.612  1.00  0.00    -0.248 OA
ATOM      6  N   UNL     1      17.551 -21.990  -0.539  1.00  0.00    -0.254 N 
ATOM      7  C   UNL     1      16.651 -20.970  -0.668  1.00  0.00    +0.261 C 
ATOM      8  O   UNL     1      15.605 -21.023  -1.303  1.00  0.00    -0.271 OA
ATOM      9  H   UNL     1      19.057 -19.862   1.238  1.00  0.00    +0.166 HD
ENDROOT
BRANCH   2  10
ATOM     10  C   UNL     1      16.354 -19.402   1.379  1.00  0.00    -0.013 A 
ATOM     11  C   UNL     1      15.388 -18.378   1.387  1.00  0.00    +0.008 A 
ATOM     12  C   UNL     1      16.543 -20.139   2.567  1.00  0.00    +0.008 A 
ATOM     13  C   UNL     1      14.644 -18.095   2.537  1.00  0.00    +0.022 A 
ATOM     14  C   UNL     1      15.801 -19.864   3.718  1.00  0.00    +0.022 A 
ATOM     15  C   UNL     1      14.848 -18.847   3.693  1.00  0.00    +0.082 A 
BRANCH  15  16
ATOM     16  S   UNL     1      13.900 -18.492   5.148  1.00  0.00    +0.238 S 
ATOM     17  O   UNL     1      13.532 -19.742   5.771  1.00  0.00    -0.207 OA
ATOM     18  O   UNL     1      12.933 -17.468   4.830  1.00  0.00    -0.207 OA
BRANCH  16  19
ATOM     19  N   UNL     1      15.067 -17.805   6.149  1.00  0.00    -0.225 NA
ATOM     20  H   UNL     1      14.739 -16.969   6.633  1.00  0.00    +0.137 HD
ATOM     21  H   UNL     1      15.904 -17.617   5.596  1.00  0.00    +0.137 HD
ENDBRANCH  16  19
ENDBRANCH  15  16
ENDBRANCH   2  10
BRANCH   6  22
ATOM     22  C   UNL     1      17.331 -23.343  -0.990  1.00  0.00    +0.206 C 
BRANCH  22  23
ATOM     23  C   UNL     1      16.478 -24.068   0.039  1.00  0.00    +0.155 C 
ATOM     24  O   UNL     1      15.259 -23.963   0.136  1.00  0.00    -0.297 OA
BRANCH  23  25
ATOM     25  C   UNL     1      17.226 -24.954   0.972  1.00  0.00    +0.058 C 
ATOM     26  C   UNL     1      17.287 -26.441   0.706  1.00  0.00    +0.012 C 
ATOM     27  C   UNL     1      18.522 -25.604   0.546  1.00  0.00    +0.012 C 
ENDBRANCH  23  25
ENDBRANCH  22  23
ENDBRANCH   6  22
TORSDOF 6
ENDMDL
MODEL 4
REMARK VINA RESULT:    -7.342      1.373      2.294
REMARK INTER + INTRA:         -10.325
REMARK INTER:                  -9.865
REMARK INTRA:                  -0.459
REMARK UNBOUND:                -0.622
REMARK SMILES CC1(c2ccc(S(N)(=O)=O)cc2)NC(=O)N(CC(=O)C2CC2)C1=O
REMARK SMILES IDX 1 1 2 2 13 3 14 4 15 5 16 6 23 7 24 8 3 10 4 11 12 12 5 13
REMARK SMILES IDX 11 14 6 15 7 16 9 17 10 18 8 19 17 22 18 23 19 24 20 25
REMARK SMILES IDX 21 26 22 27
REMARK H PARENT 13 9 8 20 8 21
ROOT
ATOM      1  C   UNL     1      17.933 -23.550   3.832  1.00  0.00    +0.051 C 
ATOM      2  C   UNL     1      17.152 -22.720   2.812  1.00  0.00    +0.144 C 
ATOM      3  N   UNL     1      16.327 -23.569   1.973  1.00  0.00    -0.319 N 
ATOM      4  C   UNL     1      16.619 -23.423   0.640  1.00  0.00    +0.325 C 
ATOM      5  O   UNL     1      15.952 -23.897  -0.265  1.00  0.00    -0.248 OA
ATOM      6  N   UNL     1      17.737 -22.667   0.517  1.00  0.00    -0.254 N 
ATOM      7  C   UNL     1      18.144 -22.210   1.739  1.00  0.00    +0.261 C 
ATOM      8  O   UNL     1      19.125 -21.504   1.942  1.00  0.00    -0.271 OA
ATOM      9  H   UNL     1      15.431 -23.950   2.244  1.00  0.00    +0.166 HD
ENDROOT
BRANCH   2  10
ATOM     10  C   UNL     1      16.283 -21.640   3.456  1.00  0.00    -0.013 A 
ATOM     11  C   UNL     1      15.524 -21.875   4.618  1.00  0.00    +0.008 A 
ATOM     12  C   UNL     1      16.250 -20.344   2.899  1.00  0.00    +0.008 A 
ATOM     13  C   UNL     1      14.754 -20.861   5.197  1.00  0.00    +0.022 A 
ATOM     14  C   UNL     1      15.486 -19.326   3.473  1.00  0.00    +0.022 A 
ATOM     15  C   UNL     1      14.748 -19.589   4.626  1.00  0.00    +0.082 A 
BRANCH  15  16
ATOM     16  S   UNL     1      13.778 -18.302   5.364  1.00  0.00    +0.238 S 
ATOM     17  O   UNL     1      14.512 -17.759   6.483  1.00  0.00    -0.207 OA
ATOM     18  O   UNL     1      12.414 -18.761   5.477  1.00  0.00    -0.207 OA
BRANCH  16  19
ATOM     19  N   UNL     1      13.825 -17.119   4.165  1.00  0.00    -0.225 NA
ATOM     20  H   UNL     1      14.701 -17.112   3.643  1.00  0.00    +0.137 HD
ATOM     21  H   UNL     1      13.633 -16.212   4.593  1.00  0.00    +0.137 HD
ENDBRANCH  16  19
ENDBRANCH  15  16
ENDBRANCH   2  10
BRANCH   6  22
ATOM     22  C   UNL     1      18.301 -22.252  -0.745  1.00  0.00    +0.206 C 
BRANCH  22  23
ATOM     23  C   UNL     1      19.466 -23.170  -1.084  1.00  0.00    +0.155 C 
ATOM     24  O   UNL     1      19.675 -24.257  -0.555  1.00  0.00    -0.297 OA
BRANCH  23  25
ATOM     25  C   UNL     1      20.385 -22.665  -2.140  1.00  0.00    +0.058 C 
ATOM     26  C   UNL     1      20.338 -23.267  -3.525  1.00  0.00    +0.012 C 
ATOM     27  C   UNL     1      19.855 -21.864  -3.307  1.00  0.00    +0.012 C 
ENDBRANCH  23  25
ENDBRANCH  22  23
ENDBRANCH   6  22
TORSDOF 6
ENDMDL
MODEL 5
REMARK VINA RESULT:    -7.029      1.992      4.230
REMARK INTER + INTRA:          -9.912
REMARK INTER:                  -9.302
REMARK INTRA:                  -0.610
REMARK UNBOUND:                -0.622
REMARK SMILES CC1(c2ccc(S(N)(=O)=O)cc2)NC(=O)N(CC(=O)C2CC2)C1=O
REMARK SMILES IDX 1 1 2 2 13 3 14 4 15 5 16 6 23 7 24 8 3 10 4 11 12 12 5 13
REMARK SMILES IDX 11 14 6 15 7 16 9 17 10 18 8 19 17 22 18 23 19 24 20 25
REMARK SMILES IDX 21 26 22 27
REMARK H PARENT 13 9 8 20 8 21
ROOT
ATOM      1  C   UNL     1      16.465 -21.039  -0.225  1.00  0.00    +0.051 C 
ATOM      2  C   UNL     1      17.148 -21.163   1.139  1.00  0.00    +0.144 C 
ATOM      3  N   UNL     1      18.527 -20.717   1.071  1.00  0.00    -0.319 N 
ATOM      4  C   UNL     1      19.409 -21.695   1.460  1.00  0.00    +0.325 C 
ATOM      5  O   UNL     1      20.600 -21.510   1.651  1.00  0.00    -0.248 OA
ATOM      6  N   UNL     1      18.733 -22.861   1.604  1.00  0.00    -0.254 N 
ATOM      7  C   UNL     1      17.393 -22.665   1.424  1.00  0.00    +0.261 C 
ATOM      8  O   UNL     1      16.533 -23.535   1.491  1.00  0.00    -0.271 OA
ATOM      9  H   UNL     1      18.821 -19.750   1.091  1.00  0.00    +0.166 HD
ENDROOT
BRANCH   2  10
ATOM     10  C   UNL     1      16.419 -20.404   2.247  1.00  0.00    -0.013 A 
ATOM     11  C   UNL     1      15.691 -19.225   2.001  1.00  0.00    +0.008 A 
ATOM     12  C   UNL     1      16.440 -20.902   3.566  1.00  0.00    +0.008 A 
ATOM     13  C   UNL     1      15.016 -18.563   3.032  1.00  0.00    +0.022 A 
ATOM     14  C   UNL     1      15.767 -20.248   4.600  1.00  0.00    +0.022 A 
ATOM     15  C   UNL     1      15.050 -19.084   4.324  1.00  0.00    +0.082 A 
BRANCH  15  16
ATOM     16  S   UNL     1      14.189 -18.249   5.630  1.00  0.00    +0.238 S 
ATOM     17  O   UNL     1      15.087 -18.106   6.752  1.00  0.00    -0.207 OA
ATOM     18  O   UNL     1      12.873 -18.827   5.757  1.00  0.00    -0.207 OA
BRANCH  16  19
ATOM     19  N   UNL     1      14.013 -16.705   4.980  1.00  0.00    -0.225 NA
ATOM     20  H   UNL     1      13.092 -16.301   5.152  1.00  0.00    +0.137 HD
ATOM     21  H   UNL     1      14.229 -16.742   3.983  1.00  0.00    +0.137 HD
ENDBRANCH  16  19
ENDBRANCH  15  16
ENDBRANCH   2  10
BRANCH   6  22
ATOM     22  C   UNL     1      19.328 -24.092   2.067  1.00  0.00    +0.206 C 
BRANCH  22  23
ATOM     23  C   UNL     1      19.517 -24.006   3.573  1.00  0.00    +0.155 C 
ATOM     24  O   UNL     1      18.603 -23.949   4.390  1.00  0.00    -0.297 OA
BRANCH  23  25
ATOM     25  C   UNL     1      20.932 -23.991   4.035  1.00  0.00    +0.058 C 
ATOM     26  C   UNL     1      21.729 -25.275   4.049  1.00  0.00    +0.012 C 
ATOM     27  C   UNL     1      22.065 -24.200   3.058  1.00  0.00    +0.012 C 
ENDBRANCH  23  25
ENDBRANCH  22  23
ENDBRANCH   6  22
TORSDOF 6
ENDMDL
MODEL 6
REMARK VINA RESULT:    -7.018      2.301      4.281
REMARK INTER + INTRA:          -9.897
REMARK INTER:                  -9.275
REMARK INTRA:                  -0.621
REMARK UNBOUND:                -0.622
REMARK SMILES CC1(c2ccc(S(N)(=O)=O)cc2)NC(=O)N(CC(=O)C2CC2)C1=O
REMARK SMILES IDX 1 1 2 2 13 3 14 4 15 5 16 6 23 7 24 8 3 10 4 11 12 12 5 13
REMARK SMILES IDX 11 14 6 15 7 16 9 17 10 18 8 19 17 22 18 23 19 24 20 25
REMARK SMILES IDX 21 26 22 27
REMARK H PARENT 13 9 8 20 8 21
ROOT
ATOM      1  C   UNL     1      17.939 -21.062   0.501  1.00  0.00    +0.051 C 
ATOM      2  C   UNL     1      17.770 -21.655   1.902  1.00  0.00    +0.144 C 
ATOM      3  N   UNL     1      19.052 -21.785   2.569  1.00  0.00    -0.319 N 
ATOM      4  C   UNL     1      19.312 -23.078   2.948  1.00  0.00    +0.325 C 
ATOM      5  O   UNL     1      20.238 -23.410   3.670  1.00  0.00    -0.248 OA
ATOM      6  N   UNL     1      18.372 -23.890   2.405  1.00  0.00    -0.254 N 
ATOM      7  C   UNL     1      17.421 -23.156   1.756  1.00  0.00    +0.261 C 
ATOM      8  O   UNL     1      16.449 -23.615   1.167  1.00  0.00    -0.271 OA
ATOM      9  H   UNL     1      19.542 -21.028   3.026  1.00  0.00    +0.166 HD
ENDROOT
BRANCH   2  10
ATOM     10  C   UNL     1      16.814 -20.851   2.783  1.00  0.00    -0.013 A 
ATOM     11  C   UNL     1      16.531 -21.210   4.114  1.00  0.00    +0.008 A 
ATOM     12  C   UNL     1      16.204 -19.687   2.271  1.00  0.00    +0.008 A 
ATOM     13  C   UNL     1      15.667 -20.443   4.903  1.00  0.00    +0.022 A 
ATOM     14  C   UNL     1      15.343 -18.914   3.054  1.00  0.00    +0.022 A 
ATOM     15  C   UNL     1      15.086 -19.294   4.370  1.00  0.00    +0.082 A 
BRANCH  15  16
ATOM     16  S   UNL     1      13.997 -18.318   5.372  1.00  0.00    +0.238 S 
ATOM     17  O   UNL     1      14.710 -17.908   6.559  1.00  0.00    -0.207 OA
ATOM     18  O   UNL     1      12.710 -18.970   5.423  1.00  0.00    -0.207 OA
BRANCH  16  19
ATOM     19  N   UNL     1      13.833 -16.929   4.432  1.00  0.00    -0.225 NA
ATOM     20  H   UNL     1      14.677 -16.697   3.909  1.00  0.00    +0.137 HD
ATOM     21  H   UNL     1      13.538 -16.159   5.034  1.00  0.00    +0.137 HD
ENDBRANCH  16  19
ENDBRANCH  15  16
ENDBRANCH   2  10
BRANCH   6  22
ATOM     22  C   UNL     1      18.291 -25.312   2.645  1.00  0.00    +0.206 C 
BRANCH  22  23
ATOM     23  C   UNL     1      19.106 -26.032   1.582  1.00  0.00    +0.155 C 
ATOM     24  O   UNL     1      20.332 -26.054   1.537  1.00  0.00    -0.297 OA
BRANCH  23  25
ATOM     25  C   UNL     1      18.309 -26.745   0.546  1.00  0.00    +0.058 C 
ATOM     26  C   UNL     1      18.359 -28.253   0.469  1.00  0.00    +0.012 C 
ATOM     27  C   UNL     1      17.106 -27.572   0.932  1.00  0.00    +0.012 C 
ENDBRANCH  23  25
ENDBRANCH  22  23
ENDBRANCH   6  22
TORSDOF 6
ENDMDL
MODEL 7
REMARK VINA RESULT:    -6.945      1.718      2.454
REMARK INTER + INTRA:          -9.800
REMARK INTER:                  -9.737
REMARK INTRA:                  -0.063
REMARK UNBOUND:                -0.622
REMARK SMILES CC1(c2ccc(S(N)(=O)=O)cc2)NC(=O)N(CC(=O)C2CC2)C1=O
REMARK SMILES IDX 1 1 2 2 13 3 14 4 15 5 16 6 23 7 24 8 3 10 4 11 12 12 5 13
REMARK SMILES IDX 11 14 6 15 7 16 9 17 10 18 8 19 17 22 18 23 19 24 20 25
REMARK SMILES IDX 21 26 22 27
REMARK H PARENT 13 9 8 20 8 21
ROOT
ATOM      1  C   UNL     1      18.869 -21.413   2.141  1.00  0.00    +0.051 C 
ATOM      2  C   UNL     1      17.460 -21.274   1.562  1.00  0.00    +0.144 C 
ATOM      3  N   UNL     1      16.866 -22.575   1.320  1.00  0.00    -0.319 N 
ATOM      4  C   UNL     1      16.499 -22.744   0.008  1.00  0.00    +0.325 C 
ATOM      5  O   UNL     1      15.830 -23.677  -0.404  1.00  0.00    -0.248 OA
ATOM      6  N   UNL     1      16.985 -21.707  -0.718  1.00  0.00    -0.254 N 
ATOM      7  C   UNL     1      17.582 -20.788   0.097  1.00  0.00    +0.261 C 
ATOM      8  O   UNL     1      18.113 -19.748  -0.274  1.00  0.00    -0.271 OA
ATOM      9  H   UNL     1      16.441 -23.155   2.031  1.00  0.00    +0.166 HD
ENDROOT
BRANCH   2  10
ATOM     10  C   UNL     1      16.528 -20.443   2.444  1.00  0.00    -0.013 A 
ATOM     11  C   UNL     1      15.868 -19.293   1.972  1.00  0.00    +0.008 A 
ATOM     12  C   UNL     1      16.285 -20.842   3.775  1.00  0.00    +0.008 A 
ATOM     13  C   UNL     1      15.005 -18.563   2.797  1.00  0.00    +0.022 A 
ATOM     14  C   UNL     1      15.422 -20.121   4.604  1.00  0.00    +0.022 A 
ATOM     15  C   UNL     1      14.780 -18.988   4.105  1.00  0.00    +0.082 A 
BRANCH  15  16
ATOM     16  S   UNL     1      13.681 -18.068   5.148  1.00  0.00    +0.238 S 
ATOM     17  O   UNL     1      12.612 -18.941   5.571  1.00  0.00    -0.207 OA
ATOM     18  O   UNL     1      13.440 -16.781   4.542  1.00  0.00    -0.207 OA
BRANCH  16  19
ATOM     19  N   UNL     1      14.641 -17.823   6.512  1.00  0.00    -0.225 NA
ATOM     20  H   UNL     1      15.153 -18.658   6.796  1.00  0.00    +0.137 HD
ATOM     21  H   UNL     1      14.053 -17.466   7.266  1.00  0.00    +0.137 HD
ENDBRANCH  16  19
ENDBRANCH  15  16
ENDBRANCH   2  10
BRANCH   6  22
ATOM     22  C   UNL     1      16.738 -21.518  -2.127  1.00  0.00    +0.206 C 
BRANCH  22  23
ATOM     23  C   UNL     1      18.073 -21.382  -2.843  1.00  0.00    +0.155 C 
ATOM     24  O   UNL     1      18.411 -20.411  -3.513  1.00  0.00    -0.297 OA
BRANCH  23  25
ATOM     25  C   UNL     1      18.997 -22.538  -2.687  1.00  0.00    +0.058 C 
ATOM     26  C   UNL     1      20.299 -22.566  -3.453  1.00  0.00    +0.012 C 
ATOM     27  C   UNL     1      20.314 -22.381  -1.964  1.00  0.00    +0.012 C 
ENDBRANCH  23  25
ENDBRANCH  22  23
ENDBRANCH   6  22
TORSDOF 6
ENDMDL
MODEL 8
REMARK VINA RESULT:    -6.824      3.797      7.655
REMARK INTER + INTRA:          -9.641
REMARK INTER:                  -9.178
REMARK INTRA:                  -0.463
REMARK UNBOUND:                -0.622
REMARK SMILES CC1(c2ccc(S(N)(=O)=O)cc2)NC(=O)N(CC(=O)C2CC2)C1=O
REMARK SMILES IDX 1 1 2 2 13 3 14 4 15 5 16 6 23 7 24 8 3 10 4 11 12 12 5 13
REMARK SMILES IDX 11 14 6 15 7 16 9 17 10 18 8 19 17 22 18 23 19 24 20 25
REMARK SMILES IDX 21 26 22 27
REMARK H PARENT 13 9 8 20 8 21
ROOT
ATOM      1  C   UNL     1      15.753 -22.961  -0.477  1.00  0.00    +0.051 C 
ATOM      2  C   UNL     1      16.984 -22.119  -0.132  1.00  0.00    +0.144 C 
ATOM      3  N   UNL     1      17.645 -22.628   1.055  1.00  0.00    -0.319 N 
ATOM      4  C   UNL     1      17.738 -21.680   2.044  1.00  0.00    +0.325 C 
ATOM      5  O   UNL     1      18.398 -21.812   3.062  1.00  0.00    -0.248 OA
ATOM      6  N   UNL     1      17.001 -20.600   1.686  1.00  0.00    -0.254 N 
ATOM      7  C   UNL     1      16.500 -20.758   0.425  1.00  0.00    +0.261 C 
ATOM      8  O   UNL     1      15.795 -19.948  -0.165  1.00  0.00    -0.271 OA
ATOM      9  H   UNL     1      18.272 -23.421   1.069  1.00  0.00    +0.166 HD
ENDROOT
BRANCH   2  10
ATOM     10  C   UNL     1      17.990 -22.028  -1.279  1.00  0.00    -0.013 A 
ATOM     11  C   UNL     1      19.222 -22.707  -1.258  1.00  0.00    +0.008 A 
ATOM     12  C   UNL     1      17.679 -21.264  -2.423  1.00  0.00    +0.008 A 
ATOM     13  C   UNL     1      20.115 -22.621  -2.332  1.00  0.00    +0.022 A 
ATOM     14  C   UNL     1      18.563 -21.175  -3.500  1.00  0.00    +0.022 A 
ATOM     15  C   UNL     1      19.775 -21.864  -3.451  1.00  0.00    +0.082 A 
BRANCH  15  16
ATOM     16  S   UNL     1      20.902 -21.760  -4.815  1.00  0.00    +0.238 S 
ATOM     17  O   UNL     1      21.290 -23.099  -5.192  1.00  0.00    -0.207 OA
ATOM     18  O   UNL     1      21.865 -20.721  -4.538  1.00  0.00    -0.207 OA
BRANCH  16  19
ATOM     19  N   UNL     1      19.890 -21.211  -6.045  1.00  0.00    -0.225 NA
ATOM     20  H   UNL     1      19.031 -21.754  -6.129  1.00  0.00    +0.137 HD
ATOM     21  H   UNL     1      20.416 -21.198  -6.920  1.00  0.00    +0.137 HD
ENDBRANCH  16  19
ENDBRANCH  15  16
ENDBRANCH   2  10
BRANCH   6  22
ATOM     22  C   UNL     1      16.920 -19.382   2.456  1.00  0.00    +0.206 C 
BRANCH  22  23
ATOM     23  C   UNL     1      15.564 -19.330   3.144  1.00  0.00    +0.155 C 
ATOM     24  O   UNL     1      14.635 -18.605   2.802  1.00  0.00    -0.297 OA
BRANCH  23  25
ATOM     25  C   UNL     1      15.408 -20.243   4.309  1.00  0.00    +0.058 C 
ATOM     26  C   UNL     1      15.839 -19.785   5.683  1.00  0.00    +0.012 C 
ATOM     27  C   UNL     1      14.381 -19.960   5.380  1.00  0.00    +0.012 C 
ENDBRANCH  23  25
ENDBRANCH  22  23
ENDBRANCH   6  22
TORSDOF 6
ENDMDL
MODEL 9
REMARK VINA RESULT:    -6.770      2.476      3.527
REMARK INTER + INTRA:          -9.569
REMARK INTER:                  -9.032
REMARK INTRA:                  -0.537
REMARK UNBOUND:                -0.622
REMARK SMILES CC1(c2ccc(S(N)(=O)=O)cc2)NC(=O)N(CC(=O)C2CC2)C1=O
REMARK SMILES IDX 1 1 2 2 13 3 14 4 15 5 16 6 23 7 24 8 3 10 4 11 12 12 5 13
REMARK SMILES IDX 11 14 6 15 7 16 9 17 10 18 8 19 17 22 18 23 19 24 20 25
REMARK SMILES IDX 21 26 22 27
REMARK H PARENT 13 9 8 20 8 21
ROOT
ATOM      1  C   UNL     1      16.511 -23.588   2.088  1.00  0.00    +0.051 C 
ATOM      2  C   UNL     1      17.151 -22.198   2.103  1.00  0.00    +0.144 C 
ATOM      3  N   UNL     1      17.343 -21.699   0.754  1.00  0.00    -0.319 N 
ATOM      4  C   UNL     1      18.657 -21.400   0.493  1.00  0.00    +0.325 C 
ATOM      5  O   UNL     1      19.042 -20.810  -0.503  1.00  0.00    -0.248 OA
ATOM      6  N   UNL     1      19.420 -21.849   1.520  1.00  0.00    -0.254 N 
ATOM      7  C   UNL     1      18.634 -22.351   2.518  1.00  0.00    +0.261 C 
ATOM      8  O   UNL     1      19.042 -22.830   3.570  1.00  0.00    -0.271 OA
ATOM      9  H   UNL     1      16.618 -21.282   0.186  1.00  0.00    +0.166 HD
ENDROOT
BRANCH   2  10
ATOM     10  C   UNL     1      16.353 -21.179   2.916  1.00  0.00    -0.013 A 
ATOM     11  C   UNL     1      16.124 -19.865   2.464  1.00  0.00    +0.008 A 
ATOM     12  C   UNL     1      15.792 -21.556   4.154  1.00  0.00    +0.008 A 
ATOM     13  C   UNL     1      15.372 -18.960   3.221  1.00  0.00    +0.022 A 
ATOM     14  C   UNL     1      15.038 -20.659   4.914  1.00  0.00    +0.022 A 
ATOM     15  C   UNL     1      14.825 -19.366   4.437  1.00  0.00    +0.082 A 
BRANCH  15  16
ATOM     16  S   UNL     1      13.867 -18.222   5.393  1.00  0.00    +0.238 S 
ATOM     17  O   UNL     1      14.628 -17.853   6.564  1.00  0.00    -0.207 OA
ATOM     18  O   UNL     1      12.510 -18.709   5.470  1.00  0.00    -0.207 OA
BRANCH  16  19
ATOM     19  N   UNL     1      13.871 -16.865   4.394  1.00  0.00    -0.225 NA
ATOM     20  H   UNL     1      13.574 -17.070   3.440  1.00  0.00    +0.137 HD
ATOM     21  H   UNL     1      14.801 -16.444   4.418  1.00  0.00    +0.137 HD
ENDBRANCH  16  19
ENDBRANCH  15  16
ENDBRANCH   2  10
BRANCH   6  22
ATOM     22  C   UNL     1      20.846 -21.650   1.618  1.00  0.00    +0.206 C 
BRANCH  22  23
ATOM     23  C   UNL     1      21.549 -22.917   1.156  1.00  0.00    +0.155 C 
ATOM     24  O   UNL     1      21.054 -23.760   0.414  1.00  0.00    -0.297 OA
BRANCH  23  25
ATOM     25  C   UNL     1      22.933 -23.099   1.672  1.00  0.00    +0.058 C 
ATOM     26  C   UNL     1      24.098 -22.501   0.918  1.00  0.00    +0.012 C 
ATOM     27  C   UNL     1      23.702 -21.933   2.248  1.00  0.00    +0.012 C 
ENDBRANCH  23  25
ENDBRANCH  22  23
ENDBRANCH   6  22
TORSDOF 6
ENDMDL
