MODEL 1
REMARK VINA RESULT:    -8.698      0.000      0.000
REMARK INTER + INTRA:         -12.868
REMARK INTER:                 -11.495
REMARK INTRA:                  -1.373
REMARK UNBOUND:                -1.373
REMARK SMILES CC1(c2ccc(S(N)(=O)=O)cc2)NC(=O)N(CC(=O)c2ccccc2)C1=O
REMARK SMILES IDX 1 1 2 2 13 3 14 4 15 5 16 6 26 7 27 8 3 10 4 11 12 12 5 13
REMARK SMILES IDX 11 14 6 15 7 16 9 17 10 18 8 19 17 22 18 23 19 24 20 25
REMARK SMILES IDX 21 26 25 27 22 28 24 29 23 30
REMARK H PARENT 13 9 8 20 8 21
ROOT
ATOM      1  C   UNL     1      18.009 -23.639   4.039  1.00  0.00    +0.051 C 
ATOM      2  C   UNL     1      17.352 -22.882   2.881  1.00  0.00    +0.144 C 
ATOM      3  N   UNL     1      16.616 -23.815   2.049  1.00  0.00    -0.319 N 
ATOM      4  C   UNL     1      17.206 -24.011   0.825  1.00  0.00    +0.325 C 
ATOM      5  O   UNL     1      16.820 -24.827   0.006  1.00  0.00    -0.248 OA
ATOM      6  N   UNL     1      18.257 -23.161   0.707  1.00  0.00    -0.254 N 
ATOM      7  C   UNL     1      18.440 -22.455   1.863  1.00  0.00    +0.261 C 
ATOM      8  O   UNL     1      19.336 -21.643   2.065  1.00  0.00    -0.271 OA
ATOM      9  H   UNL     1      15.893 -24.442   2.374  1.00  0.00    +0.166 HD
ENDROOT
BRANCH   2  10
ATOM     10  C   UNL     1      16.501 -21.706   3.356  1.00  0.00    -0.013 A 
ATOM     11  C   UNL     1      16.522 -20.455   2.710  1.00  0.00    +0.008 A 
ATOM     12  C   UNL     1      15.659 -21.854   4.476  1.00  0.00    +0.008 A 
ATOM     13  C   UNL     1      15.728 -19.395   3.161  1.00  0.00    +0.022 A 
ATOM     14  C   UNL     1      14.864 -20.799   4.933  1.00  0.00    +0.022 A 
ATOM     15  C   UNL     1      14.893 -19.576   4.263  1.00  0.00    +0.082 A 
BRANCH  15  16
ATOM     16  S   UNL     1      13.915 -18.229   4.856  1.00  0.00    +0.238 S 
ATOM     17  O   UNL     1      13.669 -17.305   3.773  1.00  0.00    -0.207 OA
ATOM     18  O   UNL     1      12.856 -18.741   5.694  1.00  0.00    -0.207 OA
BRANCH  16  19
ATOM     19  N   UNL     1      14.986 -17.452   5.890  1.00  0.00    -0.225 NA
ATOM     20  H   UNL     1      14.661 -16.502   6.072  1.00  0.00    +0.137 HD
ATOM     21  H   UNL     1      15.930 -17.497   5.506  1.00  0.00    +0.137 HD
ENDBRANCH  16  19
ENDBRANCH  15  16
ENDBRANCH   2  10
BRANCH   6  22
ATOM     22  C   UNL     1      19.171 -23.146  -0.411  1.00  0.00    +0.211 C 
BRANCH  22  23
ATOM     23  C   UNL     1      18.530 -22.392  -1.573  1.00  0.00    +0.182 C 
ATOM     24  O   UNL     1      18.710 -22.707  -2.750  1.00  0.00    -0.292 OA
BRANCH  23  25
ATOM     25  C   UNL     1      17.659 -21.217  -1.258  1.00  0.00    +0.019 A 
ATOM     26  C   UNL     1      16.260 -21.294  -1.272  1.00  0.00    +0.012 A 
ATOM     27  C   UNL     1      18.275 -20.000  -0.935  1.00  0.00    +0.012 A 
ATOM     28  C   UNL     1      15.493 -20.164  -0.970  1.00  0.00    +0.001 A 
ATOM     29  C   UNL     1      17.505 -18.874  -0.634  1.00  0.00    +0.001 A 
ATOM     30  C   UNL     1      16.115 -18.958  -0.652  1.00  0.00    +0.000 A 
ENDBRANCH  23  25
ENDBRANCH  22  23
ENDBRANCH   6  22
TORSDOF 6
ENDMDL
MODEL 2
REMARK VINA RESULT:    -7.793      3.432      7.373
REMARK INTER + INTRA:         -11.671
REMARK INTER:                 -11.097
REMARK INTRA:                  -0.574
REMARK UNBOUND:                -1.373
REMARK SMILES CC1(c2ccc(S(N)(=O)=O)cc2)NC(=O)N(CC(=O)c2ccccc2)C1=O
REMARK SMILES IDX 1 1 2 2 13 3 14 4 15 5 16 6 26 7 27 8 3 10 4 11 12 12 5 13
REMARK SMILES IDX 11 14 6 15 7 16 9 17 10 18 8 19 17 22 18 23 19 24 20 25
REMARK SMILES IDX 21 26 25 27 22 28 24 29 23 30
REMARK H PARENT 13 9 8 20 8 21
ROOT
ATOM      1  C   UNL     1      16.163 -23.330   0.409  1.00  0.00    +0.051 C 
ATOM      2  C   UNL     1      17.337 -22.362   0.584  1.00  0.00    +0.144 C 
ATOM      3  N   UNL     1      18.130 -22.766   1.729  1.00  0.00    -0.319 N 
ATOM      4  C   UNL     1      18.010 -21.899   2.787  1.00  0.00    +0.325 C 
ATOM      5  O   UNL     1      18.505 -22.092   3.885  1.00  0.00    -0.248 OA
ATOM      6  N   UNL     1      17.268 -20.833   2.396  1.00  0.00    -0.254 N 
ATOM      7  C   UNL     1      16.811 -21.006   1.118  1.00  0.00    +0.261 C 
ATOM      8  O   UNL     1      16.083 -20.227   0.514  1.00  0.00    -0.271 OA
ATOM      9  H   UNL     1      18.544 -23.679   1.861  1.00  0.00    +0.166 HD
ENDROOT
BRANCH   2  10
ATOM     10  C   UNL     1      18.165 -22.208  -0.691  1.00  0.00    -0.013 A 
ATOM     11  C   UNL     1      19.548 -22.467  -0.723  1.00  0.00    +0.008 A 
ATOM     12  C   UNL     1      17.545 -21.793  -1.886  1.00  0.00    +0.008 A 
ATOM     13  C   UNL     1      20.283 -22.324  -1.906  1.00  0.00    +0.022 A 
ATOM     14  C   UNL     1      18.273 -21.647  -3.071  1.00  0.00    +0.022 A 
ATOM     15  C   UNL     1      19.639 -21.926  -3.076  1.00  0.00    +0.082 A 
BRANCH  15  16
ATOM     16  S   UNL     1      20.571 -21.712  -4.562  1.00  0.00    +0.238 S 
ATOM     17  O   UNL     1      21.667 -20.804  -4.312  1.00  0.00    -0.207 OA
ATOM     18  O   UNL     1      20.759 -22.995  -5.197  1.00  0.00    -0.207 OA
BRANCH  16  19
ATOM     19  N   UNL     1      19.488 -20.872  -5.533  1.00  0.00    -0.225 NA
ATOM     20  H   UNL     1      19.535 -21.228  -6.487  1.00  0.00    +0.137 HD
ATOM     21  H   UNL     1      19.665 -19.870  -5.458  1.00  0.00    +0.137 HD
ENDBRANCH  16  19
ENDBRANCH  15  16
ENDBRANCH   2  10
BRANCH   6  22
ATOM     22  C   UNL     1      16.855 -19.762   3.272  1.00  0.00    +0.211 C 
BRANCH  22  23
ATOM     23  C   UNL     1      15.562 -20.161   3.978  1.00  0.00    +0.182 C 
ATOM     24  O   UNL     1      15.304 -21.327   4.281  1.00  0.00    -0.292 OA
BRANCH  23  25
ATOM     25  C   UNL     1      14.571 -19.088   4.299  1.00  0.00    +0.019 A 
ATOM     26  C   UNL     1      14.293 -18.034   3.420  1.00  0.00    +0.012 A 
ATOM     27  C   UNL     1      13.899 -19.151   5.528  1.00  0.00    +0.012 A 
ATOM     28  C   UNL     1      13.356 -17.056   3.771  1.00  0.00    +0.001 A 
ATOM     29  C   UNL     1      12.964 -18.173   5.875  1.00  0.00    +0.001 A 
ATOM     30  C   UNL     1      12.694 -17.127   4.996  1.00  0.00    +0.000 A 
ENDBRANCH  23  25
ENDBRANCH  22  23
ENDBRANCH   6  22
TORSDOF 6
ENDMDL
MODEL 3
REMARK VINA RESULT:    -7.661      1.520      4.042
REMARK INTER + INTRA:         -11.497
REMARK INTER:                 -10.250
REMARK INTRA:                  -1.247
REMARK UNBOUND:                -1.373
REMARK SMILES CC1(c2ccc(S(N)(=O)=O)cc2)NC(=O)N(CC(=O)c2ccccc2)C1=O
REMARK SMILES IDX 1 1 2 2 13 3 14 4 15 5 16 6 26 7 27 8 3 10 4 11 12 12 5 13
REMARK SMILES IDX 11 14 6 15 7 16 9 17 10 18 8 19 17 22 18 23 19 24 20 25
REMARK SMILES IDX 21 26 25 27 22 28 24 29 23 30
REMARK H PARENT 13 9 8 20 8 21
ROOT
ATOM      1  C   UNL     1      17.170 -19.165  -0.899  1.00  0.00    +0.051 C 
ATOM      2  C   UNL     1      17.259 -20.076   0.329  1.00  0.00    +0.144 C 
ATOM      3  N   UNL     1      18.651 -20.273   0.685  1.00  0.00    -0.319 N 
ATOM      4  C   UNL     1      19.087 -21.549   0.426  1.00  0.00    +0.325 C 
ATOM      5  O   UNL     1      20.245 -21.911   0.550  1.00  0.00    -0.248 OA
ATOM      6  N   UNL     1      18.031 -22.297   0.021  1.00  0.00    -0.254 N 
ATOM      7  C   UNL     1      16.905 -21.528  -0.081  1.00  0.00    +0.261 C 
ATOM      8  O   UNL     1      15.809 -21.922  -0.462  1.00  0.00    -0.271 OA
ATOM      9  H   UNL     1      19.315 -19.536   0.879  1.00  0.00    +0.166 HD
ENDROOT
BRANCH   2  10
ATOM     10  C   UNL     1      16.410 -19.573   1.495  1.00  0.00    -0.013 A 
ATOM     11  C   UNL     1      15.458 -18.547   1.343  1.00  0.00    +0.008 A 
ATOM     12  C   UNL     1      16.567 -20.140   2.776  1.00  0.00    +0.008 A 
ATOM     13  C   UNL     1      14.688 -18.108   2.426  1.00  0.00    +0.022 A 
ATOM     14  C   UNL     1      15.802 -19.706   3.862  1.00  0.00    +0.022 A 
ATOM     15  C   UNL     1      14.855 -18.699   3.678  1.00  0.00    +0.082 A 
BRANCH  15  16
ATOM     16  S   UNL     1      13.909 -18.123   5.054  1.00  0.00    +0.238 S 
ATOM     17  O   UNL     1      13.312 -16.849   4.725  1.00  0.00    -0.207 OA
ATOM     18  O   UNL     1      13.142 -19.219   5.598  1.00  0.00    -0.207 OA
BRANCH  16  19
ATOM     19  N   UNL     1      15.106 -17.793   6.185  1.00  0.00    -0.225 NA
ATOM     20  H   UNL     1      14.988 -18.399   6.997  1.00  0.00    +0.137 HD
ATOM     21  H   UNL     1      15.102 -16.798   6.410  1.00  0.00    +0.137 HD
ENDBRANCH  16  19
ENDBRANCH  15  16
ENDBRANCH   2  10
BRANCH   6  22
ATOM     22  C   UNL     1      18.127 -23.667  -0.427  1.00  0.00    +0.211 C 
BRANCH  22  23
ATOM     23  C   UNL     1      17.685 -24.595   0.701  1.00  0.00    +0.182 C 
ATOM     24  O   UNL     1      16.962 -25.574   0.511  1.00  0.00    -0.292 OA
BRANCH  23  25
ATOM     25  C   UNL     1      18.147 -24.289   2.091  1.00  0.00    +0.019 A 
ATOM     26  C   UNL     1      17.348 -23.602   3.013  1.00  0.00    +0.012 A 
ATOM     27  C   UNL     1      19.427 -24.713   2.474  1.00  0.00    +0.012 A 
ATOM     28  C   UNL     1      17.829 -23.341   4.301  1.00  0.00    +0.001 A 
ATOM     29  C   UNL     1      19.903 -24.451   3.761  1.00  0.00    +0.001 A 
ATOM     30  C   UNL     1      19.103 -23.765   4.672  1.00  0.00    +0.000 A 
ENDBRANCH  23  25
ENDBRANCH  22  23
ENDBRANCH   6  22
TORSDOF 6
ENDMDL
MODEL 4
REMARK VINA RESULT:    -7.474      3.529      7.680
REMARK INTER + INTRA:         -11.250
REMARK INTER:                 -10.494
REMARK INTRA:                  -0.756
REMARK UNBOUND:                -1.373
REMARK SMILES CC1(c2ccc(S(N)(=O)=O)cc2)NC(=O)N(CC(=O)c2ccccc2)C1=O
REMARK SMILES IDX 1 1 2 2 13 3 14 4 15 5 16 6 26 7 27 8 3 10 4 11 12 12 5 13
REMARK SMILES IDX 11 14 6 15 7 16 9 17 10 18 8 19 17 22 18 23 19 24 20 25
REMARK SMILES IDX 21 26 25 27 22 28 24 29 23 30
REMARK H PARENT 13 9 8 20 8 21
ROOT
ATOM      1  C   UNL     1      15.847 -21.865  -1.335  1.00  0.00    +0.051 C 
ATOM      2  C   UNL     1      17.103 -21.790  -0.462  1.00  0.00    +0.144 C 
ATOM      3  N   UNL     1      16.900 -22.571   0.744  1.00  0.00    -0.319 N 
ATOM      4  C   UNL     1      16.777 -21.788   1.865  1.00  0.00    +0.325 C 
ATOM      5  O   UNL     1      16.500 -22.221   2.970  1.00  0.00    -0.248 OA
ATOM      6  N   UNL     1      17.011 -20.496   1.523  1.00  0.00    -0.254 N 
ATOM      7  C   UNL     1      17.204 -20.381   0.174  1.00  0.00    +0.261 C 
ATOM      8  O   UNL     1      17.396 -19.331  -0.428  1.00  0.00    -0.271 OA
ATOM      9  H   UNL     1      16.640 -23.547   0.771  1.00  0.00    +0.166 HD
ENDROOT
BRANCH   2  10
ATOM     10  C   UNL     1      18.370 -22.183  -1.221  1.00  0.00    -0.013 A 
ATOM     11  C   UNL     1      19.531 -22.631  -0.563  1.00  0.00    +0.008 A 
ATOM     12  C   UNL     1      18.400 -22.101  -2.627  1.00  0.00    +0.008 A 
ATOM     13  C   UNL     1      20.676 -22.990  -1.281  1.00  0.00    +0.022 A 
ATOM     14  C   UNL     1      19.542 -22.457  -3.352  1.00  0.00    +0.022 A 
ATOM     15  C   UNL     1      20.672 -22.913  -2.673  1.00  0.00    +0.082 A 
BRANCH  15  16
ATOM     16  S   UNL     1      22.129 -23.333  -3.581  1.00  0.00    +0.238 S 
ATOM     17  O   UNL     1      22.455 -22.256  -4.487  1.00  0.00    -0.207 OA
ATOM     18  O   UNL     1      23.102 -23.909  -2.681  1.00  0.00    -0.207 OA
BRANCH  16  19
ATOM     19  N   UNL     1      21.586 -24.598  -4.542  1.00  0.00    -0.225 NA
ATOM     20  H   UNL     1      21.674 -24.344  -5.526  1.00  0.00    +0.137 HD
ATOM     21  H   UNL     1      20.638 -24.856  -4.268  1.00  0.00    +0.137 HD
ENDBRANCH  16  19
ENDBRANCH  15  16
ENDBRANCH   2  10
BRANCH   6  22
ATOM     22  C   UNL     1      16.878 -19.377   2.427  1.00  0.00    +0.211 C 
BRANCH  22  23
ATOM     23  C   UNL     1      15.445 -18.856   2.371  1.00  0.00    +0.182 C 
ATOM     24  O   UNL     1      14.915 -18.482   1.323  1.00  0.00    -0.292 OA
BRANCH  23  25
ATOM     25  C   UNL     1      14.665 -18.790   3.646  1.00  0.00    +0.019 A 
ATOM     26  C   UNL     1      14.696 -19.815   4.599  1.00  0.00    +0.012 A 
ATOM     27  C   UNL     1      13.881 -17.653   3.887  1.00  0.00    +0.012 A 
ATOM     28  C   UNL     1      13.947 -19.702   5.775  1.00  0.00    +0.001 A 
ATOM     29  C   UNL     1      13.134 -17.544   5.062  1.00  0.00    +0.001 A 
ATOM     30  C   UNL     1      13.169 -18.569   6.005  1.00  0.00    +0.000 A 
ENDBRANCH  23  25
ENDBRANCH  22  23
ENDBRANCH   6  22
TORSDOF 6
ENDMDL
MODEL 5
REMARK VINA RESULT:    -7.465      3.306      6.977
REMARK INTER + INTRA:         -11.238
REMARK INTER:                 -10.431
REMARK INTRA:                  -0.807
REMARK UNBOUND:                -1.373
REMARK SMILES CC1(c2ccc(S(N)(=O)=O)cc2)NC(=O)N(CC(=O)c2ccccc2)C1=O
REMARK SMILES IDX 1 1 2 2 13 3 14 4 15 5 16 6 26 7 27 8 3 10 4 11 12 12 5 13
REMARK SMILES IDX 11 14 6 15 7 16 9 17 10 18 8 19 17 22 18 23 19 24 20 25
REMARK SMILES IDX 21 26 25 27 22 28 24 29 23 30
REMARK H PARENT 13 9 8 20 8 21
ROOT
ATOM      1  C   UNL     1      18.012 -25.073   2.367  1.00  0.00    +0.051 C 
ATOM      2  C   UNL     1      18.139 -23.557   2.185  1.00  0.00    +0.144 C 
ATOM      3  N   UNL     1      18.893 -22.999   3.291  1.00  0.00    -0.319 N 
ATOM      4  C   UNL     1      18.114 -22.250   4.136  1.00  0.00    +0.325 C 
ATOM      5  O   UNL     1      18.512 -21.771   5.185  1.00  0.00    -0.248 OA
ATOM      6  N   UNL     1      16.868 -22.149   3.608  1.00  0.00    -0.254 N 
ATOM      7  C   UNL     1      16.768 -22.889   2.463  1.00  0.00    +0.261 C 
ATOM      8  O   UNL     1      15.753 -23.022   1.790  1.00  0.00    -0.271 OA
ATOM      9  H   UNL     1      19.819 -23.290   3.573  1.00  0.00    +0.166 HD
ENDROOT
BRANCH   2  10
ATOM     10  C   UNL     1      18.710 -23.176   0.820  1.00  0.00    -0.013 A 
ATOM     11  C   UNL     1      18.613 -21.870   0.304  1.00  0.00    +0.008 A 
ATOM     12  C   UNL     1      19.359 -24.148   0.033  1.00  0.00    +0.008 A 
ATOM     13  C   UNL     1      19.149 -21.544  -0.947  1.00  0.00    +0.022 A 
ATOM     14  C   UNL     1      19.897 -23.830  -1.218  1.00  0.00    +0.022 A 
ATOM     15  C   UNL     1      19.800 -22.524  -1.696  1.00  0.00    +0.082 A 
BRANCH  15  16
ATOM     16  S   UNL     1      20.448 -22.123  -3.291  1.00  0.00    +0.238 S 
ATOM     17  O   UNL     1      21.547 -21.198  -3.141  1.00  0.00    -0.207 OA
ATOM     18  O   UNL     1      20.551 -23.329  -4.079  1.00  0.00    -0.207 OA
BRANCH  16  19
ATOM     19  N   UNL     1      19.189 -21.239  -3.964  1.00  0.00    -0.225 NA
ATOM     20  H   UNL     1      19.566 -20.453  -4.495  1.00  0.00    +0.137 HD
ATOM     21  H   UNL     1      18.532 -20.965  -3.234  1.00  0.00    +0.137 HD
ENDBRANCH  16  19
ENDBRANCH  15  16
ENDBRANCH   2  10
BRANCH   6  22
ATOM     22  C   UNL     1      15.753 -21.511   4.267  1.00  0.00    +0.211 C 
BRANCH  22  23
ATOM     23  C   UNL     1      15.668 -20.056   3.812  1.00  0.00    +0.182 C 
ATOM     24  O   UNL     1      16.450 -19.569   2.994  1.00  0.00    -0.292 OA
BRANCH  23  25
ATOM     25  C   UNL     1      14.595 -19.193   4.397  1.00  0.00    +0.019 A 
ATOM     26  C   UNL     1      13.978 -19.486   5.620  1.00  0.00    +0.012 A 
ATOM     27  C   UNL     1      14.202 -18.049   3.688  1.00  0.00    +0.012 A 
ATOM     28  C   UNL     1      12.980 -18.645   6.121  1.00  0.00    +0.001 A 
ATOM     29  C   UNL     1      13.205 -17.211   4.192  1.00  0.00    +0.001 A 
ATOM     30  C   UNL     1      12.595 -17.510   5.408  1.00  0.00    +0.000 A 
ENDBRANCH  23  25
ENDBRANCH  22  23
ENDBRANCH   6  22
TORSDOF 6
ENDMDL
MODEL 6
REMARK VINA RESULT:    -7.360      2.262      4.645
REMARK INTER + INTRA:         -11.100
REMARK INTER:                 -10.191
REMARK INTRA:                  -0.909
REMARK UNBOUND:                -1.373
REMARK SMILES CC1(c2ccc(S(N)(=O)=O)cc2)NC(=O)N(CC(=O)c2ccccc2)C1=O
REMARK SMILES IDX 1 1 2 2 13 3 14 4 15 5 16 6 26 7 27 8 3 10 4 11 12 12 5 13
REMARK SMILES IDX 11 14 6 15 7 16 9 17 10 18 8 19 17 22 18 23 19 24 20 25
REMARK SMILES IDX 21 26 25 27 22 28 24 29 23 30
REMARK H PARENT 13 9 8 20 8 21
ROOT
ATOM      1  C   UNL     1      17.531 -18.909  -0.625  1.00  0.00    +0.051 C 
ATOM      2  C   UNL     1      17.280 -19.903   0.513  1.00  0.00    +0.144 C 
ATOM      3  N   UNL     1      18.549 -20.331   1.070  1.00  0.00    -0.319 N 
ATOM      4  C   UNL     1      18.845 -21.637   0.769  1.00  0.00    +0.325 C 
ATOM      5  O   UNL     1      19.903 -22.177   1.044  1.00  0.00    -0.248 OA
ATOM      6  N   UNL     1      17.782 -22.190   0.132  1.00  0.00    -0.254 N 
ATOM      7  C   UNL     1      16.806 -21.255  -0.080  1.00  0.00    +0.261 C 
ATOM      8  O   UNL     1      15.750 -21.453  -0.668  1.00  0.00    -0.271 OA
ATOM      9  H   UNL     1      19.264 -19.717   1.434  1.00  0.00    +0.166 HD
ENDROOT
BRANCH   2  10
ATOM     10  C   UNL     1      16.319 -19.358   1.567  1.00  0.00    -0.013 A 
ATOM     11  C   UNL     1      16.191 -19.944   2.841  1.00  0.00    +0.008 A 
ATOM     12  C   UNL     1      15.523 -18.232   1.278  1.00  0.00    +0.008 A 
ATOM     13  C   UNL     1      15.308 -19.422   3.792  1.00  0.00    +0.022 A 
ATOM     14  C   UNL     1      14.637 -17.705   2.223  1.00  0.00    +0.022 A 
ATOM     15  C   UNL     1      14.544 -18.297   3.482  1.00  0.00    +0.082 A 
BRANCH  15  16
ATOM     16  S   UNL     1      13.402 -17.657   4.670  1.00  0.00    +0.238 S 
ATOM     17  O   UNL     1      12.296 -17.033   3.981  1.00  0.00    -0.207 OA
ATOM     18  O   UNL     1      13.211 -18.630   5.720  1.00  0.00    -0.207 OA
BRANCH  16  19
ATOM     19  N   UNL     1      14.284 -16.404   5.358  1.00  0.00    -0.225 NA
ATOM     20  H   UNL     1      15.237 -16.716   5.543  1.00  0.00    +0.137 HD
ATOM     21  H   UNL     1      13.798 -16.054   6.183  1.00  0.00    +0.137 HD
ENDBRANCH  16  19
ENDBRANCH  15  16
ENDBRANCH   2  10
BRANCH   6  22
ATOM     22  C   UNL     1      17.765 -23.525  -0.419  1.00  0.00    +0.211 C 
BRANCH  22  23
ATOM     23  C   UNL     1      17.405 -24.517   0.684  1.00  0.00    +0.182 C 
ATOM     24  O   UNL     1      16.654 -24.228   1.618  1.00  0.00    -0.292 OA
BRANCH  23  25
ATOM     25  C   UNL     1      18.002 -25.887   0.626  1.00  0.00    +0.019 A 
ATOM     26  C   UNL     1      17.271 -27.039   0.944  1.00  0.00    +0.012 A 
ATOM     27  C   UNL     1      19.342 -26.013   0.234  1.00  0.00    +0.012 A 
ATOM     28  C   UNL     1      17.878 -28.297   0.874  1.00  0.00    +0.001 A 
ATOM     29  C   UNL     1      19.944 -27.271   0.164  1.00  0.00    +0.001 A 
ATOM     30  C   UNL     1      19.212 -28.411   0.484  1.00  0.00    +0.000 A 
ENDBRANCH  23  25
ENDBRANCH  22  23
ENDBRANCH   6  22
TORSDOF 6
ENDMDL
MODEL 7
REMARK VINA RESULT:    -7.360      2.957      4.305
REMARK INTER + INTRA:         -11.099
REMARK INTER:                 -10.184
REMARK INTRA:                  -0.916
REMARK UNBOUND:                -1.373
REMARK SMILES CC1(c2ccc(S(N)(=O)=O)cc2)NC(=O)N(CC(=O)c2ccccc2)C1=O
REMARK SMILES IDX 1 1 2 2 13 3 14 4 15 5 16 6 26 7 27 8 3 10 4 11 12 12 5 13
REMARK SMILES IDX 11 14 6 15 7 16 9 17 10 18 8 19 17 22 18 23 19 24 20 25
REMARK SMILES IDX 21 26 25 27 22 28 24 29 23 30
REMARK H PARENT 13 9 8 20 8 21
ROOT
ATOM      1  C   UNL     1      16.485 -23.482  -0.464  1.00  0.00    +0.051 C 
ATOM      2  C   UNL     1      17.259 -22.226  -0.055  1.00  0.00    +0.144 C 
ATOM      3  N   UNL     1      17.096 -21.205  -1.073  1.00  0.00    -0.319 N 
ATOM      4  C   UNL     1      18.248 -20.980  -1.784  1.00  0.00    +0.325 C 
ATOM      5  O   UNL     1      18.318 -20.242  -2.752  1.00  0.00    -0.248 OA
ATOM      6  N   UNL     1      19.252 -21.706  -1.230  1.00  0.00    -0.254 N 
ATOM      7  C   UNL     1      18.779 -22.484  -0.210  1.00  0.00    +0.261 C 
ATOM      8  O   UNL     1      19.447 -23.273   0.448  1.00  0.00    -0.271 OA
ATOM      9  H   UNL     1      16.211 -20.850  -1.407  1.00  0.00    +0.166 HD
ENDROOT
BRANCH   2  10
ATOM     10  C   UNL     1      16.888 -21.738   1.345  1.00  0.00    -0.013 A 
ATOM     11  C   UNL     1      16.661 -22.626   2.413  1.00  0.00    +0.008 A 
ATOM     12  C   UNL     1      16.762 -20.358   1.598  1.00  0.00    +0.008 A 
ATOM     13  C   UNL     1      16.328 -22.154   3.688  1.00  0.00    +0.022 A 
ATOM     14  C   UNL     1      16.429 -19.879   2.869  1.00  0.00    +0.022 A 
ATOM     15  C   UNL     1      16.225 -20.782   3.912  1.00  0.00    +0.082 A 
BRANCH  15  16
ATOM     16  S   UNL     1      15.771 -20.185   5.512  1.00  0.00    +0.238 S 
ATOM     17  O   UNL     1      14.334 -20.236   5.651  1.00  0.00    -0.207 OA
ATOM     18  O   UNL     1      16.665 -20.742   6.500  1.00  0.00    -0.207 OA
BRANCH  16  19
ATOM     19  N   UNL     1      16.166 -18.556   5.399  1.00  0.00    -0.225 NA
ATOM     20  H   UNL     1      16.718 -18.394   4.556  1.00  0.00    +0.137 HD
ATOM     21  H   UNL     1      16.627 -18.254   6.257  1.00  0.00    +0.137 HD
ENDBRANCH  16  19
ENDBRANCH  15  16
ENDBRANCH   2  10
BRANCH   6  22
ATOM     22  C   UNL     1      20.589 -21.791  -1.770  1.00  0.00    +0.211 C 
BRANCH  22  23
ATOM     23  C   UNL     1      20.625 -22.868  -2.851  1.00  0.00    +0.182 C 
ATOM     24  O   UNL     1      20.523 -24.069  -2.596  1.00  0.00    -0.292 OA
BRANCH  23  25
ATOM     25  C   UNL     1      20.802 -22.437  -4.272  1.00  0.00    +0.019 A 
ATOM     26  C   UNL     1      21.564 -21.317  -4.629  1.00  0.00    +0.012 A 
ATOM     27  C   UNL     1      20.181 -23.192  -5.278  1.00  0.00    +0.012 A 
ATOM     28  C   UNL     1      21.696 -20.958  -5.974  1.00  0.00    +0.001 A 
ATOM     29  C   UNL     1      20.317 -22.830  -6.620  1.00  0.00    +0.001 A 
ATOM     30  C   UNL     1      21.074 -21.714  -6.967  1.00  0.00    +0.000 A 
ENDBRANCH  23  25
ENDBRANCH  22  23
ENDBRANCH   6  22
TORSDOF 6
ENDMDL
MODEL 8
REMARK VINA RESULT:    -7.297      4.463      7.291
REMARK INTER + INTRA:         -11.017
REMARK INTER:                 -10.144
REMARK INTRA:                  -0.872
REMARK UNBOUND:                -1.373
REMARK SMILES CC1(c2ccc(S(N)(=O)=O)cc2)NC(=O)N(CC(=O)c2ccccc2)C1=O
REMARK SMILES IDX 1 1 2 2 13 3 14 4 15 5 16 6 26 7 27 8 3 10 4 11 12 12 5 13
REMARK SMILES IDX 11 14 6 15 7 16 9 17 10 18 8 19 17 22 18 23 19 24 20 25
REMARK SMILES IDX 21 26 25 27 22 28 24 29 23 30
REMARK H PARENT 13 9 8 20 8 21
ROOT
ATOM      1  C   UNL     1      20.918 -23.242   0.020  1.00  0.00    +0.051 C 
ATOM      2  C   UNL     1      20.631 -23.364   1.519  1.00  0.00    +0.144 C 
ATOM      3  N   UNL     1      20.025 -24.654   1.792  1.00  0.00    -0.319 N 
ATOM      4  C   UNL     1      18.700 -24.552   2.136  1.00  0.00    +0.325 C 
ATOM      5  O   UNL     1      17.966 -25.510   2.308  1.00  0.00    -0.248 OA
ATOM      6  N   UNL     1      18.376 -23.239   2.242  1.00  0.00    -0.254 N 
ATOM      7  C   UNL     1      19.436 -22.450   1.891  1.00  0.00    +0.261 C 
ATOM      8  O   UNL     1      19.426 -21.225   1.851  1.00  0.00    -0.271 OA
ATOM      9  H   UNL     1      20.422 -25.550   1.545  1.00  0.00    +0.166 HD
ENDROOT
BRANCH   2  10
ATOM     10  C   UNL     1      21.866 -23.091   2.376  1.00  0.00    -0.013 A 
ATOM     11  C   UNL     1      22.073 -23.724   3.617  1.00  0.00    +0.008 A 
ATOM     12  C   UNL     1      22.843 -22.178   1.932  1.00  0.00    +0.008 A 
ATOM     13  C   UNL     1      23.216 -23.461   4.381  1.00  0.00    +0.022 A 
ATOM     14  C   UNL     1      23.986 -21.910   2.690  1.00  0.00    +0.022 A 
ATOM     15  C   UNL     1      24.173 -22.565   3.908  1.00  0.00    +0.082 A 
BRANCH  15  16
ATOM     16  S   UNL     1      25.600 -22.205   4.887  1.00  0.00    +0.238 S 
ATOM     17  O   UNL     1      26.672 -23.099   4.514  1.00  0.00    -0.207 OA
ATOM     18  O   UNL     1      25.776 -20.774   4.965  1.00  0.00    -0.207 OA
BRANCH  16  19
ATOM     19  N   UNL     1      25.103 -22.692   6.415  1.00  0.00    -0.225 NA
ATOM     20  H   UNL     1      25.917 -22.935   6.980  1.00  0.00    +0.137 HD
ATOM     21  H   UNL     1      24.421 -23.446   6.331  1.00  0.00    +0.137 HD
ENDBRANCH  16  19
ENDBRANCH  15  16
ENDBRANCH   2  10
BRANCH   6  22
ATOM     22  C   UNL     1      17.042 -22.747   2.498  1.00  0.00    +0.211 C 
BRANCH  22  23
ATOM     23  C   UNL     1      16.929 -22.349   3.967  1.00  0.00    +0.182 C 
ATOM     24  O   UNL     1      17.635 -22.846   4.846  1.00  0.00    -0.292 OA
BRANCH  23  25
ATOM     25  C   UNL     1      15.909 -21.322   4.345  1.00  0.00    +0.019 A 
ATOM     26  C   UNL     1      14.948 -21.548   5.339  1.00  0.00    +0.012 A 
ATOM     27  C   UNL     1      15.926 -20.091   3.675  1.00  0.00    +0.012 A 
ATOM     28  C   UNL     1      14.017 -20.553   5.653  1.00  0.00    +0.001 A 
ATOM     29  C   UNL     1      14.994 -19.099   3.992  1.00  0.00    +0.001 A 
ATOM     30  C   UNL     1      14.041 -19.332   4.980  1.00  0.00    +0.000 A 
ENDBRANCH  23  25
ENDBRANCH  22  23
ENDBRANCH   6  22
TORSDOF 6
ENDMDL
MODEL 9
REMARK VINA RESULT:    -7.242      1.842      3.261
REMARK INTER + INTRA:         -10.943
REMARK INTER:                 -10.804
REMARK INTRA:                  -0.139
REMARK UNBOUND:                -1.373
REMARK SMILES CC1(c2ccc(S(N)(=O)=O)cc2)NC(=O)N(CC(=O)c2ccccc2)C1=O
REMARK SMILES IDX 1 1 2 2 13 3 14 4 15 5 16 6 26 7 27 8 3 10 4 11 12 12 5 13
REMARK SMILES IDX 11 14 6 15 7 16 9 17 10 18 8 19 17 22 18 23 19 24 20 25
REMARK SMILES IDX 21 26 25 27 22 28 24 29 23 30
REMARK H PARENT 13 9 8 20 8 21
ROOT
ATOM      1  C   UNL     1      18.592 -20.852   2.040  1.00  0.00    +0.051 C 
ATOM      2  C   UNL     1      17.132 -20.922   1.583  1.00  0.00    +0.144 C 
ATOM      3  N   UNL     1      16.733 -22.310   1.450  1.00  0.00    -0.319 N 
ATOM      4  C   UNL     1      16.556 -22.686   0.142  1.00  0.00    +0.325 C 
ATOM      5  O   UNL     1      16.320 -23.828  -0.212  1.00  0.00    -0.248 OA
ATOM      6  N   UNL     1      16.688 -21.591  -0.649  1.00  0.00    -0.254 N 
ATOM      7  C   UNL     1      17.038 -20.498   0.095  1.00  0.00    +0.261 C 
ATOM      8  O   UNL     1      17.266 -19.380  -0.351  1.00  0.00    -0.271 OA
ATOM      9  H   UNL     1      16.795 -23.008   2.179  1.00  0.00    +0.166 HD
ENDROOT
BRANCH   2  10
ATOM     10  C   UNL     1      16.197 -20.115   2.482  1.00  0.00    -0.013 A 
ATOM     11  C   UNL     1      15.958 -20.466   3.824  1.00  0.00    +0.008 A 
ATOM     12  C   UNL     1      15.540 -18.977   1.972  1.00  0.00    +0.008 A 
ATOM     13  C   UNL     1      15.102 -19.707   4.629  1.00  0.00    +0.022 A 
ATOM     14  C   UNL     1      14.682 -18.214   2.770  1.00  0.00    +0.022 A 
ATOM     15  C   UNL     1      14.477 -18.578   4.101  1.00  0.00    +0.082 A 
BRANCH  15  16
ATOM     16  S   UNL     1      13.368 -17.637   5.106  1.00  0.00    +0.238 S 
ATOM     17  O   UNL     1      12.182 -17.323   4.343  1.00  0.00    -0.207 OA
ATOM     18  O   UNL     1      13.308 -18.221   6.425  1.00  0.00    -0.207 OA
BRANCH  16  19
ATOM     19  N   UNL     1      14.201 -16.189   5.280  1.00  0.00    -0.225 NA
ATOM     20  H   UNL     1      14.116 -15.858   6.241  1.00  0.00    +0.137 HD
ATOM     21  H   UNL     1      13.876 -15.519   4.583  1.00  0.00    +0.137 HD
ENDBRANCH  16  19
ENDBRANCH  15  16
ENDBRANCH   2  10
BRANCH   6  22
ATOM     22  C   UNL     1      16.658 -21.620  -2.092  1.00  0.00    +0.211 C 
BRANCH  22  23
ATOM     23  C   UNL     1      18.009 -21.156  -2.631  1.00  0.00    +0.182 C 
ATOM     24  O   UNL     1      18.160 -20.074  -3.201  1.00  0.00    -0.292 OA
BRANCH  23  25
ATOM     25  C   UNL     1      19.186 -22.063  -2.465  1.00  0.00    +0.019 A 
ATOM     26  C   UNL     1      19.884 -22.175  -1.255  1.00  0.00    +0.012 A 
ATOM     27  C   UNL     1      19.597 -22.827  -3.566  1.00  0.00    +0.012 A 
ATOM     28  C   UNL     1      20.979 -23.039  -1.155  1.00  0.00    +0.001 A 
ATOM     29  C   UNL     1      20.691 -23.689  -3.461  1.00  0.00    +0.001 A 
ATOM     30  C   UNL     1      21.381 -23.794  -2.256  1.00  0.00    +0.000 A 
ENDBRANCH  23  25
ENDBRANCH  22  23
ENDBRANCH   6  22
TORSDOF 6
ENDMDL
