MODEL 1
REMARK VINA RESULT:    -9.249      0.000      0.000
REMARK INTER + INTRA:         -13.280
REMARK INTER:                 -12.223
REMARK INTRA:                  -1.057
REMARK UNBOUND:                -1.057
REMARK SMILES CC1(c2ccc(S(N)(=O)=O)cc2)NC(=O)N(CC(=O)c2nc3ccccc3s2)C1=O
REMARK SMILES IDX 1 1 2 2 13 3 14 4 15 5 16 6 29 7 30 8 3 10 4 11 12 12 5 13
REMARK SMILES IDX 11 14 6 15 7 16 9 17 10 18 8 19 17 22 18 23 19 24 20 25
REMARK SMILES IDX 21 26 28 27 22 28 27 29 23 30 26 31 24 32 25 33
REMARK H PARENT 13 9 8 20 8 21
ROOT
ATOM      1  C   UNL     1      18.239 -22.325  -2.388  1.00  0.00    +0.051 C 
ATOM      2  C   UNL     1      18.442 -21.413  -1.175  1.00  0.00    +0.144 C 
ATOM      3  N   UNL     1      18.775 -20.074  -1.626  1.00  0.00    -0.319 N 
ATOM      4  C   UNL     1      17.771 -19.171  -1.386  1.00  0.00    +0.325 C 
ATOM      5  O   UNL     1      17.780 -18.018  -1.782  1.00  0.00    -0.248 OA
ATOM      6  N   UNL     1      16.795 -19.783  -0.671  1.00  0.00    -0.254 N 
ATOM      7  C   UNL     1      17.072 -21.112  -0.519  1.00  0.00    +0.261 C 
ATOM      8  O   UNL     1      16.331 -21.929   0.018  1.00  0.00    -0.271 OA
ATOM      9  H   UNL     1      19.537 -19.842  -2.248  1.00  0.00    +0.166 HD
ENDROOT
BRANCH   2  10
ATOM     10  C   UNL     1      19.454 -21.978  -0.180  1.00  0.00    -0.013 A 
ATOM     11  C   UNL     1      20.377 -22.979  -0.534  1.00  0.00    +0.008 A 
ATOM     12  C   UNL     1      19.477 -21.501   1.147  1.00  0.00    +0.008 A 
ATOM     13  C   UNL     1      21.289 -23.485   0.397  1.00  0.00    +0.022 A 
ATOM     14  C   UNL     1      20.385 -22.002   2.083  1.00  0.00    +0.022 A 
ATOM     15  C   UNL     1      21.293 -22.987   1.700  1.00  0.00    +0.082 A 
BRANCH  15  16
ATOM     16  S   UNL     1      22.423 -23.647   2.890  1.00  0.00    +0.238 S 
ATOM     17  O   UNL     1      23.626 -22.850   2.898  1.00  0.00    -0.207 OA
ATOM     18  O   UNL     1      22.449 -25.087   2.772  1.00  0.00    -0.207 OA
BRANCH  16  19
ATOM     19  N   UNL     1      21.638 -23.314   4.337  1.00  0.00    -0.225 NA
ATOM     20  H   UNL     1      22.106 -22.544   4.815  1.00  0.00    +0.137 HD
ATOM     21  H   UNL     1      20.646 -23.150   4.161  1.00  0.00    +0.137 HD
ENDBRANCH  16  19
ENDBRANCH  15  16
ENDBRANCH   2  10
BRANCH   6  22
ATOM     22  C   UNL     1      15.538 -19.161  -0.313  1.00  0.00    +0.214 C 
BRANCH  22  23
ATOM     23  C   UNL     1      15.735 -18.262   0.910  1.00  0.00    +0.211 C 
ATOM     24  O   UNL     1      15.936 -17.049   0.798  1.00  0.00    -0.289 OA
BRANCH  23  25
ATOM     25  C   UNL     1      15.649 -18.963   2.183  1.00  0.00    +0.162 A 
ATOM     26  N   UNL     1      16.455 -19.950   2.512  1.00  0.00    -0.233 NA
ATOM     27  S   UNL     1      14.468 -18.536   3.345  1.00  0.00    -0.111 S 
ATOM     28  C   UNL     1      16.131 -20.414   3.777  1.00  0.00    +0.082 A 
ATOM     29  C   UNL     1      15.062 -19.762   4.398  1.00  0.00    +0.055 A 
ATOM     30  C   UNL     1      16.775 -21.463   4.464  1.00  0.00    +0.030 A 
ATOM     31  C   UNL     1      14.617 -20.121   5.681  1.00  0.00    +0.021 A 
ATOM     32  C   UNL     1      16.340 -21.829   5.742  1.00  0.00    +0.002 A 
ATOM     33  C   UNL     1      15.273 -21.164   6.340  1.00  0.00    +0.002 A 
ENDBRANCH  23  25
ENDBRANCH  22  23
ENDBRANCH   6  22
TORSDOF 6
ENDMDL
MODEL 2
REMARK VINA RESULT:    -8.743      3.305      4.999
REMARK INTER + INTRA:         -12.612
REMARK INTER:                 -11.684
REMARK INTRA:                  -0.927
REMARK UNBOUND:                -1.057
REMARK SMILES CC1(c2ccc(S(N)(=O)=O)cc2)NC(=O)N(CC(=O)c2nc3ccccc3s2)C1=O
REMARK SMILES IDX 1 1 2 2 13 3 14 4 15 5 16 6 29 7 30 8 3 10 4 11 12 12 5 13
REMARK SMILES IDX 11 14 6 15 7 16 9 17 10 18 8 19 17 22 18 23 19 24 20 25
REMARK SMILES IDX 21 26 28 27 22 28 27 29 23 30 26 31 24 32 25 33
REMARK H PARENT 13 9 8 20 8 21
ROOT
ATOM      1  C   UNL     1      20.280 -24.547   0.921  1.00  0.00    +0.051 C 
ATOM      2  C   UNL     1      19.334 -23.481   0.361  1.00  0.00    +0.144 C 
ATOM      3  N   UNL     1      17.963 -23.944   0.472  1.00  0.00    -0.319 N 
ATOM      4  C   UNL     1      17.241 -23.241   1.403  1.00  0.00    +0.325 C 
ATOM      5  O   UNL     1      16.108 -23.528   1.749  1.00  0.00    -0.248 OA
ATOM      6  N   UNL     1      18.003 -22.218   1.865  1.00  0.00    -0.254 N 
ATOM      7  C   UNL     1      19.264 -22.285   1.343  1.00  0.00    +0.261 C 
ATOM      8  O   UNL     1      20.190 -21.537   1.640  1.00  0.00    -0.271 OA
ATOM      9  H   UNL     1      17.611 -24.815   0.100  1.00  0.00    +0.166 HD
ENDROOT
BRANCH   2  10
ATOM     10  C   UNL     1      19.707 -23.051  -1.056  1.00  0.00    -0.013 A 
ATOM     11  C   UNL     1      20.749 -23.664  -1.777  1.00  0.00    +0.008 A 
ATOM     12  C   UNL     1      19.004 -22.000  -1.680  1.00  0.00    +0.008 A 
ATOM     13  C   UNL     1      21.076 -23.247  -3.071  1.00  0.00    +0.022 A 
ATOM     14  C   UNL     1      19.326 -21.578  -2.973  1.00  0.00    +0.022 A 
ATOM     15  C   UNL     1      20.356 -22.211  -3.666  1.00  0.00    +0.082 A 
BRANCH  15  16
ATOM     16  S   UNL     1      20.789 -21.660  -5.289  1.00  0.00    +0.238 S 
ATOM     17  O   UNL     1      20.792 -22.788  -6.190  1.00  0.00    -0.207 OA
ATOM     18  O   UNL     1      21.898 -20.739  -5.198  1.00  0.00    -0.207 OA
BRANCH  16  19
ATOM     19  N   UNL     1      19.452 -20.735  -5.710  1.00  0.00    -0.225 NA
ATOM     20  H   UNL     1      18.701 -20.886  -5.036  1.00  0.00    +0.137 HD
ATOM     21  H   UNL     1      19.726 -19.758  -5.811  1.00  0.00    +0.137 HD
ENDBRANCH  16  19
ENDBRANCH  15  16
ENDBRANCH   2  10
BRANCH   6  22
ATOM     22  C   UNL     1      17.601 -21.319   2.925  1.00  0.00    +0.214 C 
BRANCH  22  23
ATOM     23  C   UNL     1      16.927 -20.082   2.327  1.00  0.00    +0.211 C 
ATOM     24  O   UNL     1      17.257 -19.632   1.226  1.00  0.00    -0.289 OA
BRANCH  23  25
ATOM     25  C   UNL     1      15.879 -19.514   3.163  1.00  0.00    +0.162 A 
ATOM     26  N   UNL     1      15.161 -18.472   2.801  1.00  0.00    -0.233 NA
ATOM     27  S   UNL     1      15.518 -20.182   4.696  1.00  0.00    -0.111 S 
ATOM     28  C   UNL     1      14.249 -18.167   3.799  1.00  0.00    +0.082 A 
ATOM     29  C   UNL     1      14.292 -18.994   4.923  1.00  0.00    +0.055 A 
ATOM     30  C   UNL     1      13.310 -17.115   3.768  1.00  0.00    +0.030 A 
ATOM     31  C   UNL     1      13.430 -18.809   6.017  1.00  0.00    +0.021 A 
ATOM     32  C   UNL     1      12.447 -16.921   4.851  1.00  0.00    +0.002 A 
ATOM     33  C   UNL     1      12.508 -17.759   5.960  1.00  0.00    +0.002 A 
ENDBRANCH  23  25
ENDBRANCH  22  23
ENDBRANCH   6  22
TORSDOF 6
ENDMDL
MODEL 3
REMARK VINA RESULT:    -8.672      3.269      5.185
REMARK INTER + INTRA:         -12.518
REMARK INTER:                 -11.947
REMARK INTRA:                  -0.571
REMARK UNBOUND:                -1.057
REMARK SMILES CC1(c2ccc(S(N)(=O)=O)cc2)NC(=O)N(CC(=O)c2nc3ccccc3s2)C1=O
REMARK SMILES IDX 1 1 2 2 13 3 14 4 15 5 16 6 29 7 30 8 3 10 4 11 12 12 5 13
REMARK SMILES IDX 11 14 6 15 7 16 9 17 10 18 8 19 17 22 18 23 19 24 20 25
REMARK SMILES IDX 21 26 28 27 22 28 27 29 23 30 26 31 24 32 25 33
REMARK H PARENT 13 9 8 20 8 21
ROOT
ATOM      1  C   UNL     1      20.943 -22.453   1.857  1.00  0.00    +0.051 C 
ATOM      2  C   UNL     1      19.737 -22.823   0.990  1.00  0.00    +0.144 C 
ATOM      3  N   UNL     1      19.340 -24.190   1.271  1.00  0.00    -0.319 N 
ATOM      4  C   UNL     1      18.137 -24.268   1.925  1.00  0.00    +0.325 C 
ATOM      5  O   UNL     1      17.663 -25.302   2.365  1.00  0.00    -0.248 OA
ATOM      6  N   UNL     1      17.604 -23.023   2.008  1.00  0.00    -0.254 N 
ATOM      7  C   UNL     1      18.477 -22.093   1.518  1.00  0.00    +0.261 C 
ATOM      8  O   UNL     1      18.296 -20.880   1.534  1.00  0.00    -0.271 OA
ATOM      9  H   UNL     1      19.947 -24.996   1.215  1.00  0.00    +0.166 HD
ENDROOT
BRANCH   2  10
ATOM     10  C   UNL     1      19.981 -22.563  -0.495  1.00  0.00    -0.013 A 
ATOM     11  C   UNL     1      21.220 -22.825  -1.110  1.00  0.00    +0.008 A 
ATOM     12  C   UNL     1      18.948 -22.035  -1.296  1.00  0.00    +0.008 A 
ATOM     13  C   UNL     1      21.421 -22.573  -2.470  1.00  0.00    +0.022 A 
ATOM     14  C   UNL     1      19.141 -21.780  -2.656  1.00  0.00    +0.022 A 
ATOM     15  C   UNL     1      20.376 -22.059  -3.239  1.00  0.00    +0.082 A 
BRANCH  15  16
ATOM     16  S   UNL     1      20.636 -21.707  -4.952  1.00  0.00    +0.238 S 
ATOM     17  O   UNL     1      20.536 -22.932  -5.710  1.00  0.00    -0.207 OA
ATOM     18  O   UNL     1      21.755 -20.803  -5.087  1.00  0.00    -0.207 OA
BRANCH  16  19
ATOM     19  N   UNL     1      19.268 -20.813  -5.335  1.00  0.00    -0.225 NA
ATOM     20  H   UNL     1      18.476 -21.137  -4.778  1.00  0.00    +0.137 HD
ATOM     21  H   UNL     1      19.466 -19.818  -5.232  1.00  0.00    +0.137 HD
ENDBRANCH  16  19
ENDBRANCH  15  16
ENDBRANCH   2  10
BRANCH   6  22
ATOM     22  C   UNL     1      16.381 -22.708   2.715  1.00  0.00    +0.214 C 
BRANCH  22  23
ATOM     23  C   UNL     1      16.709 -21.959   4.009  1.00  0.00    +0.211 C 
ATOM     24  O   UNL     1      17.687 -22.255   4.700  1.00  0.00    -0.289 OA
BRANCH  23  25
ATOM     25  C   UNL     1      15.780 -20.883   4.323  1.00  0.00    +0.162 A 
ATOM     26  N   UNL     1      15.554 -19.872   3.510  1.00  0.00    -0.233 NA
ATOM     27  S   UNL     1      14.915 -20.870   5.799  1.00  0.00    -0.111 S 
ATOM     28  C   UNL     1      14.627 -19.014   4.081  1.00  0.00    +0.082 A 
ATOM     29  C   UNL     1      14.158 -19.393   5.342  1.00  0.00    +0.055 A 
ATOM     30  C   UNL     1      14.137 -17.824   3.506  1.00  0.00    +0.030 A 
ATOM     31  C   UNL     1      13.216 -18.624   6.046  1.00  0.00    +0.021 A 
ATOM     32  C   UNL     1      13.199 -17.051   4.198  1.00  0.00    +0.002 A 
ATOM     33  C   UNL     1      12.746 -17.449   5.453  1.00  0.00    +0.002 A 
ENDBRANCH  23  25
ENDBRANCH  22  23
ENDBRANCH   6  22
TORSDOF 6
ENDMDL
MODEL 4
REMARK VINA RESULT:    -8.626      2.740      6.275
REMARK INTER + INTRA:         -12.456
REMARK INTER:                 -11.175
REMARK INTRA:                  -1.281
REMARK UNBOUND:                -1.057
REMARK SMILES CC1(c2ccc(S(N)(=O)=O)cc2)NC(=O)N(CC(=O)c2nc3ccccc3s2)C1=O
REMARK SMILES IDX 1 1 2 2 13 3 14 4 15 5 16 6 29 7 30 8 3 10 4 11 12 12 5 13
REMARK SMILES IDX 11 14 6 15 7 16 9 17 10 18 8 19 17 22 18 23 19 24 20 25
REMARK SMILES IDX 21 26 28 27 22 28 27 29 23 30 26 31 24 32 25 33
REMARK H PARENT 13 9 8 20 8 21
ROOT
ATOM      1  C   UNL     1      17.284 -18.425  -0.809  1.00  0.00    +0.051 C 
ATOM      2  C   UNL     1      16.640 -19.485   0.090  1.00  0.00    +0.144 C 
ATOM      3  N   UNL     1      15.909 -20.434  -0.728  1.00  0.00    -0.319 N 
ATOM      4  C   UNL     1      16.496 -21.673  -0.754  1.00  0.00    +0.325 C 
ATOM      5  O   UNL     1      16.124 -22.592  -1.464  1.00  0.00    -0.248 OA
ATOM      6  N   UNL     1      17.541 -21.679   0.111  1.00  0.00    -0.254 N 
ATOM      7  C   UNL     1      17.736 -20.433   0.637  1.00  0.00    +0.261 C 
ATOM      8  O   UNL     1      18.654 -20.122   1.389  1.00  0.00    -0.271 OA
ATOM      9  H   UNL     1      15.186 -20.195  -1.393  1.00  0.00    +0.166 HD
ENDROOT
BRANCH   2  10
ATOM     10  C   UNL     1      15.791 -18.872   1.202  1.00  0.00    -0.013 A 
ATOM     11  C   UNL     1      15.057 -17.685   1.019  1.00  0.00    +0.008 A 
ATOM     12  C   UNL     1      15.731 -19.495   2.465  1.00  0.00    +0.008 A 
ATOM     13  C   UNL     1      14.292 -17.141   2.055  1.00  0.00    +0.022 A 
ATOM     14  C   UNL     1      14.969 -18.957   3.505  1.00  0.00    +0.022 A 
ATOM     15  C   UNL     1      14.245 -17.785   3.291  1.00  0.00    +0.082 A 
BRANCH  15  16
ATOM     16  S   UNL     1      13.305 -17.082   4.614  1.00  0.00    +0.238 S 
ATOM     17  O   UNL     1      13.308 -17.991   5.735  1.00  0.00    -0.207 OA
ATOM     18  O   UNL     1      12.090 -16.511   4.082  1.00  0.00    -0.207 OA
BRANCH  16  19
ATOM     19  N   UNL     1      14.267 -15.783   5.071  1.00  0.00    -0.225 NA
ATOM     20  H   UNL     1      15.005 -16.103   5.699  1.00  0.00    +0.137 HD
ATOM     21  H   UNL     1      14.611 -15.300   4.242  1.00  0.00    +0.137 HD
ENDBRANCH  16  19
ENDBRANCH  15  16
ENDBRANCH   2  10
BRANCH   6  22
ATOM     22  C   UNL     1      18.451 -22.792   0.280  1.00  0.00    +0.214 C 
BRANCH  22  23
ATOM     23  C   UNL     1      17.870 -23.787   1.288  1.00  0.00    +0.211 C 
ATOM     24  O   UNL     1      17.813 -24.995   1.047  1.00  0.00    -0.289 OA
BRANCH  23  25
ATOM     25  C   UNL     1      17.418 -23.177   2.530  1.00  0.00    +0.162 A 
ATOM     26  N   UNL     1      16.145 -23.047   2.841  1.00  0.00    -0.233 NA
ATOM     27  S   UNL     1      18.538 -22.580   3.677  1.00  0.00    -0.111 S 
ATOM     28  C   UNL     1      16.029 -22.434   4.079  1.00  0.00    +0.082 A 
ATOM     29  C   UNL     1      17.236 -22.099   4.697  1.00  0.00    +0.055 A 
ATOM     30  C   UNL     1      14.822 -22.128   4.741  1.00  0.00    +0.030 A 
ATOM     31  C   UNL     1      17.280 -21.472   5.952  1.00  0.00    +0.021 A 
ATOM     32  C   UNL     1      14.853 -21.504   5.992  1.00  0.00    +0.002 A 
ATOM     33  C   UNL     1      16.069 -21.180   6.588  1.00  0.00    +0.002 A 
ENDBRANCH  23  25
ENDBRANCH  22  23
ENDBRANCH   6  22
TORSDOF 6
ENDMDL
MODEL 5
REMARK VINA RESULT:    -8.624      3.258      8.193
REMARK INTER + INTRA:         -12.454
REMARK INTER:                 -11.426
REMARK INTRA:                  -1.028
REMARK UNBOUND:                -1.057
REMARK SMILES CC1(c2ccc(S(N)(=O)=O)cc2)NC(=O)N(CC(=O)c2nc3ccccc3s2)C1=O
REMARK SMILES IDX 1 1 2 2 13 3 14 4 15 5 16 6 29 7 30 8 3 10 4 11 12 12 5 13
REMARK SMILES IDX 11 14 6 15 7 16 9 17 10 18 8 19 17 22 18 23 19 24 20 25
REMARK SMILES IDX 21 26 28 27 22 28 27 29 23 30 26 31 24 32 25 33
REMARK H PARENT 13 9 8 20 8 21
ROOT
ATOM      1  C   UNL     1      18.003 -23.742   4.199  1.00  0.00    +0.051 C 
ATOM      2  C   UNL     1      17.878 -22.537   3.263  1.00  0.00    +0.144 C 
ATOM      3  N   UNL     1      19.195 -21.981   3.012  1.00  0.00    -0.319 N 
ATOM      4  C   UNL     1      19.616 -22.182   1.722  1.00  0.00    +0.325 C 
ATOM      5  O   UNL     1      20.732 -21.906   1.316  1.00  0.00    -0.248 OA
ATOM      6  N   UNL     1      18.605 -22.745   1.015  1.00  0.00    -0.254 N 
ATOM      7  C   UNL     1      17.546 -23.027   1.832  1.00  0.00    +0.261 C 
ATOM      8  O   UNL     1      16.523 -23.605   1.484  1.00  0.00    -0.271 OA
ATOM      9  H   UNL     1      19.846 -21.681   3.724  1.00  0.00    +0.166 HD
ENDROOT
BRANCH   2  10
ATOM     10  C   UNL     1      16.878 -21.501   3.772  1.00  0.00    -0.013 A 
ATOM     11  C   UNL     1      16.515 -20.372   3.013  1.00  0.00    +0.008 A 
ATOM     12  C   UNL     1      16.293 -21.654   5.045  1.00  0.00    +0.008 A 
ATOM     13  C   UNL     1      15.602 -19.434   3.503  1.00  0.00    +0.022 A 
ATOM     14  C   UNL     1      15.380 -20.720   5.542  1.00  0.00    +0.022 A 
ATOM     15  C   UNL     1      15.032 -19.618   4.763  1.00  0.00    +0.082 A 
BRANCH  15  16
ATOM     16  S   UNL     1      13.902 -18.416   5.400  1.00  0.00    +0.238 S 
ATOM     17  O   UNL     1      14.491 -17.771   6.549  1.00  0.00    -0.207 OA
ATOM     18  O   UNL     1      12.572 -18.980   5.426  1.00  0.00    -0.207 OA
BRANCH  16  19
ATOM     19  N   UNL     1      13.893 -17.264   4.178  1.00  0.00    -0.225 NA
ATOM     20  H   UNL     1      13.195 -17.510   3.476  1.00  0.00    +0.137 HD
ATOM     21  H   UNL     1      13.766 -16.336   4.580  1.00  0.00    +0.137 HD
ENDBRANCH  16  19
ENDBRANCH  15  16
ENDBRANCH   2  10
BRANCH   6  22
ATOM     22  C   UNL     1      18.718 -23.182  -0.360  1.00  0.00    +0.214 C 
BRANCH  22  23
ATOM     23  C   UNL     1      18.513 -21.992  -1.301  1.00  0.00    +0.211 C 
ATOM     24  O   UNL     1      17.628 -21.154  -1.104  1.00  0.00    -0.289 OA
BRANCH  23  25
ATOM     25  C   UNL     1      19.451 -21.945  -2.413  1.00  0.00    +0.162 A 
ATOM     26  N   UNL     1      19.123 -21.499  -3.607  1.00  0.00    -0.233 NA
ATOM     27  S   UNL     1      21.064 -22.482  -2.226  1.00  0.00    -0.111 S 
ATOM     28  C   UNL     1      20.220 -21.578  -4.450  1.00  0.00    +0.082 A 
ATOM     29  C   UNL     1      21.383 -22.095  -3.873  1.00  0.00    +0.055 A 
ATOM     30  C   UNL     1      20.252 -21.191  -5.806  1.00  0.00    +0.030 A 
ATOM     31  C   UNL     1      22.575 -22.236  -4.602  1.00  0.00    +0.021 A 
ATOM     32  C   UNL     1      21.433 -21.327  -6.542  1.00  0.00    +0.002 A 
ATOM     33  C   UNL     1      22.580 -21.844  -5.945  1.00  0.00    +0.002 A 
ENDBRANCH  23  25
ENDBRANCH  22  23
ENDBRANCH   6  22
TORSDOF 6
ENDMDL
MODEL 6
REMARK VINA RESULT:    -8.297      2.674      6.577
REMARK INTER + INTRA:         -12.022
REMARK INTER:                 -10.277
REMARK INTRA:                  -1.745
REMARK UNBOUND:                -1.057
REMARK SMILES CC1(c2ccc(S(N)(=O)=O)cc2)NC(=O)N(CC(=O)c2nc3ccccc3s2)C1=O
REMARK SMILES IDX 1 1 2 2 13 3 14 4 15 5 16 6 29 7 30 8 3 10 4 11 12 12 5 13
REMARK SMILES IDX 11 14 6 15 7 16 9 17 10 18 8 19 17 22 18 23 19 24 20 25
REMARK SMILES IDX 21 26 28 27 22 28 27 29 23 30 26 31 24 32 25 33
REMARK H PARENT 13 9 8 20 8 21
ROOT
ATOM      1  C   UNL     1      19.831 -24.254   4.258  1.00  0.00    +0.051 C 
ATOM      2  C   UNL     1      19.493 -23.299   3.111  1.00  0.00    +0.144 C 
ATOM      3  N   UNL     1      20.696 -22.611   2.682  1.00  0.00    -0.319 N 
ATOM      4  C   UNL     1      21.116 -23.004   1.437  1.00  0.00    +0.325 C 
ATOM      5  O   UNL     1      22.163 -22.648   0.924  1.00  0.00    -0.248 OA
ATOM      6  N   UNL     1      20.192 -23.847   0.911  1.00  0.00    -0.254 N 
ATOM      7  C   UNL     1      19.212 -24.115   1.824  1.00  0.00    +0.261 C 
ATOM      8  O   UNL     1      18.287 -24.903   1.654  1.00  0.00    -0.271 OA
ATOM      9  H   UNL     1      21.307 -22.076   3.284  1.00  0.00    +0.166 HD
ENDROOT
BRANCH   2  10
ATOM     10  C   UNL     1      18.350 -22.346   3.458  1.00  0.00    -0.013 A 
ATOM     11  C   UNL     1      17.742 -22.335   4.727  1.00  0.00    +0.008 A 
ATOM     12  C   UNL     1      17.866 -21.445   2.488  1.00  0.00    +0.008 A 
ATOM     13  C   UNL     1      16.692 -21.458   5.018  1.00  0.00    +0.022 A 
ATOM     14  C   UNL     1      16.818 -20.567   2.772  1.00  0.00    +0.022 A 
ATOM     15  C   UNL     1      16.242 -20.571   4.041  1.00  0.00    +0.082 A 
BRANCH  15  16
ATOM     16  S   UNL     1      14.892 -19.484   4.395  1.00  0.00    +0.238 S 
ATOM     17  O   UNL     1      13.851 -20.222   5.069  1.00  0.00    -0.207 OA
ATOM     18  O   UNL     1      14.632 -18.657   3.239  1.00  0.00    -0.207 OA
BRANCH  16  19
ATOM     19  N   UNL     1      15.561 -18.467   5.552  1.00  0.00    -0.225 NA
ATOM     20  H   UNL     1      16.482 -18.811   5.824  1.00  0.00    +0.137 HD
ATOM     21  H   UNL     1      15.564 -17.507   5.208  1.00  0.00    +0.137 HD
ENDBRANCH  16  19
ENDBRANCH  15  16
ENDBRANCH   2  10
BRANCH   6  22
ATOM     22  C   UNL     1      20.344 -24.533  -0.354  1.00  0.00    +0.214 C 
BRANCH  22  23
ATOM     23  C   UNL     1      20.218 -23.531  -1.505  1.00  0.00    +0.211 C 
ATOM     24  O   UNL     1      20.971 -23.567  -2.482  1.00  0.00    -0.289 OA
BRANCH  23  25
ATOM     25  C   UNL     1      19.140 -22.566  -1.337  1.00  0.00    +0.162 A 
ATOM     26  N   UNL     1      19.352 -21.275  -1.194  1.00  0.00    -0.233 NA
ATOM     27  S   UNL     1      17.506 -23.070  -1.311  1.00  0.00    -0.111 S 
ATOM     28  C   UNL     1      18.139 -20.618  -1.056  1.00  0.00    +0.082 A 
ATOM     29  C   UNL     1      17.007 -21.435  -1.094  1.00  0.00    +0.055 A 
ATOM     30  C   UNL     1      17.966 -19.229  -0.883  1.00  0.00    +0.030 A 
ATOM     31  C   UNL     1      15.709 -20.914  -0.966  1.00  0.00    +0.021 A 
ATOM     32  C   UNL     1      16.678 -18.699  -0.756  1.00  0.00    +0.002 A 
ATOM     33  C   UNL     1      15.565 -19.534  -0.797  1.00  0.00    +0.002 A 
ENDBRANCH  23  25
ENDBRANCH  22  23
ENDBRANCH   6  22
TORSDOF 6
ENDMDL
MODEL 7
REMARK VINA RESULT:    -8.232      3.526      4.586
REMARK INTER + INTRA:         -11.937
REMARK INTER:                 -11.119
REMARK INTRA:                  -0.818
REMARK UNBOUND:                -1.057
REMARK SMILES CC1(c2ccc(S(N)(=O)=O)cc2)NC(=O)N(CC(=O)c2nc3ccccc3s2)C1=O
REMARK SMILES IDX 1 1 2 2 13 3 14 4 15 5 16 6 29 7 30 8 3 10 4 11 12 12 5 13
REMARK SMILES IDX 11 14 6 15 7 16 9 17 10 18 8 19 17 22 18 23 19 24 20 25
REMARK SMILES IDX 21 26 28 27 22 28 27 29 23 30 26 31 24 32 25 33
REMARK H PARENT 13 9 8 20 8 21
ROOT
ATOM      1  C   UNL     1      18.681 -24.064  -0.176  1.00  0.00    +0.051 C 
ATOM      2  C   UNL     1      18.771 -22.657  -0.774  1.00  0.00    +0.144 C 
ATOM      3  N   UNL     1      17.458 -22.239  -1.229  1.00  0.00    -0.319 N 
ATOM      4  C   UNL     1      16.929 -21.232  -0.463  1.00  0.00    +0.325 C 
ATOM      5  O   UNL     1      15.794 -20.804  -0.585  1.00  0.00    -0.248 OA
ATOM      6  N   UNL     1      17.862 -20.830   0.436  1.00  0.00    -0.254 N 
ATOM      7  C   UNL     1      18.972 -21.624   0.362  1.00  0.00    +0.261 C 
ATOM      8  O   UNL     1      19.945 -21.544   1.104  1.00  0.00    -0.271 OA
ATOM      9  H   UNL     1      16.875 -22.752  -1.876  1.00  0.00    +0.166 HD
ENDROOT
BRANCH   2  10
ATOM     10  C   UNL     1      19.842 -22.548  -1.858  1.00  0.00    -0.013 A 
ATOM     11  C   UNL     1      21.174 -22.947  -1.640  1.00  0.00    +0.008 A 
ATOM     12  C   UNL     1      19.511 -22.024  -3.124  1.00  0.00    +0.008 A 
ATOM     13  C   UNL     1      22.138 -22.830  -2.646  1.00  0.00    +0.022 A 
ATOM     14  C   UNL     1      20.469 -21.904  -4.134  1.00  0.00    +0.022 A 
ATOM     15  C   UNL     1      21.778 -22.317  -3.892  1.00  0.00    +0.082 A 
BRANCH  15  16
ATOM     16  S   UNL     1      23.002 -22.138  -5.155  1.00  0.00    +0.238 S 
ATOM     17  O   UNL     1      22.735 -20.935  -5.908  1.00  0.00    -0.207 OA
ATOM     18  O   UNL     1      23.221 -23.416  -5.791  1.00  0.00    -0.207 OA
BRANCH  16  19
ATOM     19  N   UNL     1      24.385 -21.823  -4.257  1.00  0.00    -0.225 NA
ATOM     20  H   UNL     1      24.842 -22.700  -4.007  1.00  0.00    +0.137 HD
ATOM     21  H   UNL     1      24.987 -21.174  -4.765  1.00  0.00    +0.137 HD
ENDBRANCH  16  19
ENDBRANCH  15  16
ENDBRANCH   2  10
BRANCH   6  22
ATOM     22  C   UNL     1      17.625 -19.846   1.469  1.00  0.00    +0.214 C 
BRANCH  22  23
ATOM     23  C   UNL     1      16.864 -20.487   2.632  1.00  0.00    +0.211 C 
ATOM     24  O   UNL     1      17.147 -21.613   3.050  1.00  0.00    -0.289 OA
BRANCH  23  25
ATOM     25  C   UNL     1      15.810 -19.650   3.185  1.00  0.00    +0.162 A 
ATOM     26  N   UNL     1      15.331 -19.813   4.401  1.00  0.00    -0.233 NA
ATOM     27  S   UNL     1      15.118 -18.384   2.266  1.00  0.00    -0.111 S 
ATOM     28  C   UNL     1      14.343 -18.871   4.641  1.00  0.00    +0.082 A 
ATOM     29  C   UNL     1      14.081 -17.995   3.585  1.00  0.00    +0.055 A 
ATOM     30  C   UNL     1      13.603 -18.734   5.833  1.00  0.00    +0.030 A 
ATOM     31  C   UNL     1      13.106 -16.988   3.678  1.00  0.00    +0.021 A 
ATOM     32  C   UNL     1      12.630 -17.735   5.938  1.00  0.00    +0.002 A 
ATOM     33  C   UNL     1      12.387 -16.874   4.872  1.00  0.00    +0.002 A 
ENDBRANCH  23  25
ENDBRANCH  22  23
ENDBRANCH   6  22
TORSDOF 6
ENDMDL
MODEL 8
REMARK VINA RESULT:    -8.222      2.770      4.128
REMARK INTER + INTRA:         -11.923
REMARK INTER:                 -11.227
REMARK INTRA:                  -0.697
REMARK UNBOUND:                -1.057
REMARK SMILES CC1(c2ccc(S(N)(=O)=O)cc2)NC(=O)N(CC(=O)c2nc3ccccc3s2)C1=O
REMARK SMILES IDX 1 1 2 2 13 3 14 4 15 5 16 6 29 7 30 8 3 10 4 11 12 12 5 13
REMARK SMILES IDX 11 14 6 15 7 16 9 17 10 18 8 19 17 22 18 23 19 24 20 25
REMARK SMILES IDX 21 26 28 27 22 28 27 29 23 30 26 31 24 32 25 33
REMARK H PARENT 13 9 8 20 8 21
ROOT
ATOM      1  C   UNL     1      20.165 -24.568   0.893  1.00  0.00    +0.051 C 
ATOM      2  C   UNL     1      20.126 -23.369   1.845  1.00  0.00    +0.144 C 
ATOM      3  N   UNL     1      19.650 -22.200   1.131  1.00  0.00    -0.319 N 
ATOM      4  C   UNL     1      18.401 -21.803   1.537  1.00  0.00    +0.325 C 
ATOM      5  O   UNL     1      17.755 -20.920   1.000  1.00  0.00    -0.248 OA
ATOM      6  N   UNL     1      18.025 -22.563   2.596  1.00  0.00    -0.254 N 
ATOM      7  C   UNL     1      18.951 -23.538   2.841  1.00  0.00    +0.261 C 
ATOM      8  O   UNL     1      18.841 -24.418   3.688  1.00  0.00    -0.271 OA
ATOM      9  H   UNL     1      20.052 -21.833   0.279  1.00  0.00    +0.166 HD
ENDROOT
BRANCH   2  10
ATOM     10  C   UNL     1      21.460 -23.137   2.552  1.00  0.00    -0.013 A 
ATOM     11  C   UNL     1      21.808 -23.810   3.738  1.00  0.00    +0.008 A 
ATOM     12  C   UNL     1      22.386 -22.216   2.022  1.00  0.00    +0.008 A 
ATOM     13  C   UNL     1      23.033 -23.576   4.370  1.00  0.00    +0.022 A 
ATOM     14  C   UNL     1      23.611 -21.976   2.648  1.00  0.00    +0.022 A 
ATOM     15  C   UNL     1      23.933 -22.665   3.816  1.00  0.00    +0.082 A 
BRANCH  15  16
ATOM     16  S   UNL     1      25.469 -22.341   4.631  1.00  0.00    +0.238 S 
ATOM     17  O   UNL     1      25.704 -20.917   4.652  1.00  0.00    -0.207 OA
ATOM     18  O   UNL     1      26.461 -23.283   4.167  1.00  0.00    -0.207 OA
BRANCH  16  19
ATOM     19  N   UNL     1      25.120 -22.775   6.215  1.00  0.00    -0.225 NA
ATOM     20  H   UNL     1      24.318 -23.406   6.232  1.00  0.00    +0.137 HD
ATOM     21  H   UNL     1      25.955 -23.157   6.660  1.00  0.00    +0.137 HD
ENDBRANCH  16  19
ENDBRANCH  15  16
ENDBRANCH   2  10
BRANCH   6  22
ATOM     22  C   UNL     1      16.727 -22.488   3.231  1.00  0.00    +0.214 C 
BRANCH  22  23
ATOM     23  C   UNL     1      16.800 -21.570   4.453  1.00  0.00    +0.211 C 
ATOM     24  O   UNL     1      17.659 -21.721   5.327  1.00  0.00    -0.289 OA
BRANCH  23  25
ATOM     25  C   UNL     1      15.789 -20.523   4.471  1.00  0.00    +0.162 A 
ATOM     26  N   UNL     1      15.654 -19.643   3.501  1.00  0.00    -0.233 NA
ATOM     27  S   UNL     1      14.702 -20.372   5.783  1.00  0.00    -0.111 S 
ATOM     28  C   UNL     1      14.613 -18.778   3.801  1.00  0.00    +0.082 A 
ATOM     29  C   UNL     1      13.966 -19.018   5.016  1.00  0.00    +0.055 A 
ATOM     30  C   UNL     1      14.171 -17.706   2.999  1.00  0.00    +0.030 A 
ATOM     31  C   UNL     1      12.893 -18.225   5.456  1.00  0.00    +0.021 A 
ATOM     32  C   UNL     1      13.104 -16.910   3.427  1.00  0.00    +0.002 A 
ATOM     33  C   UNL     1      12.475 -17.168   4.641  1.00  0.00    +0.002 A 
ENDBRANCH  23  25
ENDBRANCH  22  23
ENDBRANCH   6  22
TORSDOF 6
ENDMDL
MODEL 9
REMARK VINA RESULT:    -8.085      2.927      6.694
REMARK INTER + INTRA:         -11.742
REMARK INTER:                 -10.902
REMARK INTRA:                  -0.840
REMARK UNBOUND:                -1.057
REMARK SMILES CC1(c2ccc(S(N)(=O)=O)cc2)NC(=O)N(CC(=O)c2nc3ccccc3s2)C1=O
REMARK SMILES IDX 1 1 2 2 13 3 14 4 15 5 16 6 29 7 30 8 3 10 4 11 12 12 5 13
REMARK SMILES IDX 11 14 6 15 7 16 9 17 10 18 8 19 17 22 18 23 19 24 20 25
REMARK SMILES IDX 21 26 28 27 22 28 27 29 23 30 26 31 24 32 25 33
REMARK H PARENT 13 9 8 20 8 21
ROOT
ATOM      1  C   UNL     1      17.175 -18.237  -0.531  1.00  0.00    +0.051 C 
ATOM      2  C   UNL     1      16.434 -19.431   0.078  1.00  0.00    +0.144 C 
ATOM      3  N   UNL     1      15.430 -19.905  -0.855  1.00  0.00    -0.319 N 
ATOM      4  C   UNL     1      15.738 -21.131  -1.388  1.00  0.00    +0.325 C 
ATOM      5  O   UNL     1      15.102 -21.671  -2.277  1.00  0.00    -0.248 OA
ATOM      6  N   UNL     1      16.854 -21.604  -0.777  1.00  0.00    -0.254 N 
ATOM      7  C   UNL     1      17.365 -20.669   0.080  1.00  0.00    +0.261 C 
ATOM      8  O   UNL     1      18.409 -20.790   0.711  1.00  0.00    -0.271 OA
ATOM      9  H   UNL     1      14.700 -19.337  -1.264  1.00  0.00    +0.166 HD
ENDROOT
BRANCH   2  10
ATOM     10  C   UNL     1      15.868 -19.125   1.463  1.00  0.00    -0.013 A 
ATOM     11  C   UNL     1      16.250 -19.850   2.607  1.00  0.00    +0.008 A 
ATOM     12  C   UNL     1      14.922 -18.092   1.624  1.00  0.00    +0.008 A 
ATOM     13  C   UNL     1      15.712 -19.556   3.863  1.00  0.00    +0.022 A 
ATOM     14  C   UNL     1      14.380 -17.793   2.876  1.00  0.00    +0.022 A 
ATOM     15  C   UNL     1      14.785 -18.522   3.993  1.00  0.00    +0.082 A 
BRANCH  15  16
ATOM     16  S   UNL     1      14.078 -18.168   5.575  1.00  0.00    +0.238 S 
ATOM     17  O   UNL     1      15.136 -17.919   6.524  1.00  0.00    -0.207 OA
ATOM     18  O   UNL     1      13.008 -19.103   5.836  1.00  0.00    -0.207 OA
BRANCH  16  19
ATOM     19  N   UNL     1      13.342 -16.684   5.302  1.00  0.00    -0.225 NA
ATOM     20  H   UNL     1      12.751 -16.440   6.097  1.00  0.00    +0.137 HD
ATOM     21  H   UNL     1      14.049 -15.983   5.083  1.00  0.00    +0.137 HD
ENDBRANCH  16  19
ENDBRANCH  15  16
ENDBRANCH   2  10
BRANCH   6  22
ATOM     22  C   UNL     1      17.524 -22.832  -1.145  1.00  0.00    +0.214 C 
BRANCH  22  23
ATOM     23  C   UNL     1      17.209 -23.922  -0.119  1.00  0.00    +0.211 C 
ATOM     24  O   UNL     1      16.137 -24.533  -0.129  1.00  0.00    -0.289 OA
BRANCH  23  25
ATOM     25  C   UNL     1      18.280 -24.166   0.837  1.00  0.00    +0.162 A 
ATOM     26  N   UNL     1      19.479 -24.575   0.478  1.00  0.00    -0.233 NA
ATOM     27  S   UNL     1      18.033 -23.933   2.513  1.00  0.00    -0.111 S 
ATOM     28  C   UNL     1      20.277 -24.717   1.602  1.00  0.00    +0.082 A 
ATOM     29  C   UNL     1      19.660 -24.411   2.818  1.00  0.00    +0.055 A 
ATOM     30  C   UNL     1      21.624 -25.136   1.614  1.00  0.00    +0.030 A 
ATOM     31  C   UNL     1      20.340 -24.509   4.043  1.00  0.00    +0.021 A 
ATOM     32  C   UNL     1      22.311 -25.236   2.827  1.00  0.00    +0.002 A 
ATOM     33  C   UNL     1      21.675 -24.926   4.026  1.00  0.00    +0.002 A 
ENDBRANCH  23  25
ENDBRANCH  22  23
ENDBRANCH   6  22
TORSDOF 6
ENDMDL
