MODEL 1
REMARK VINA RESULT:    -8.759      0.000      0.000
REMARK INTER + INTRA:         -13.326
REMARK INTER:                 -11.832
REMARK INTRA:                  -1.494
REMARK UNBOUND:                -1.494
REMARK SMILES CNS(=O)(=O)c1ccc(C2(C)NC(=O)N(CC(=O)c3ccc(F)cc3F)C2=O)cc1
REMARK SMILES IDX 10 1 11 2 12 3 13 4 14 5 15 6 27 7 28 8 9 10 6 11 7 12 30 13
REMARK SMILES IDX 8 14 29 15 3 16 4 17 5 18 2 19 1 20 16 22 17 23 18 24 19 25
REMARK SMILES IDX 20 26 25 27 21 28 24 29 22 30 26 31 23 32
REMARK H PARENT 12 9 2 21
ROOT
ATOM      1  C   UNL     1      18.537 -22.793   3.598  1.00  0.00    +0.144 C 
ATOM      2  C   UNL     1      19.193 -23.696   4.650  1.00  0.00    +0.051 C 
ATOM      3  N   UNL     1      19.574 -22.162   2.805  1.00  0.00    -0.319 N 
ATOM      4  C   UNL     1      19.567 -22.583   1.498  1.00  0.00    +0.325 C 
ATOM      5  O   UNL     1      20.298 -22.138   0.629  1.00  0.00    -0.248 OA
ATOM      6  N   UNL     1      18.609 -23.537   1.352  1.00  0.00    -0.254 N 
ATOM      7  C   UNL     1      17.912 -23.709   2.518  1.00  0.00    +0.261 C 
ATOM      8  O   UNL     1      16.969 -24.472   2.682  1.00  0.00    -0.271 OA
ATOM      9  H   UNL     1      20.128 -21.367   3.096  1.00  0.00    +0.166 HD
ENDROOT
BRANCH   1  10
ATOM     10  C   UNL     1      17.547 -21.752   4.119  1.00  0.00    -0.013 A 
ATOM     11  C   UNL     1      15.693 -19.829   5.019  1.00  0.00    +0.082 A 
ATOM     12  C   UNL     1      16.375 -20.621   5.942  1.00  0.00    +0.022 A 
ATOM     13  C   UNL     1      15.941 -19.961   3.654  1.00  0.00    +0.022 A 
ATOM     14  C   UNL     1      17.292 -21.577   5.492  1.00  0.00    +0.008 A 
ATOM     15  C   UNL     1      16.856 -20.920   3.212  1.00  0.00    +0.008 A 
BRANCH  11  16
ATOM     16  S   UNL     1      14.534 -18.614   5.595  1.00  0.00    +0.240 S 
ATOM     17  O   UNL     1      15.169 -17.837   6.636  1.00  0.00    -0.207 OA
ATOM     18  O   UNL     1      13.266 -19.278   5.806  1.00  0.00    -0.207 OA
BRANCH  16  19
ATOM     19  N   UNL     1      14.338 -17.634   4.252  1.00  0.00    -0.214 NA
ATOM     20  C   UNL     1      13.052 -17.012   3.980  1.00  0.00    +0.120 C 
ATOM     21  H   UNL     1      15.191 -17.185   3.923  1.00  0.00    +0.141 HD
ENDBRANCH  16  19
ENDBRANCH  11  16
ENDBRANCH   1  10
BRANCH   6  22
ATOM     22  C   UNL     1      18.260 -24.142   0.087  1.00  0.00    +0.211 C 
BRANCH  22  23
ATOM     23  C   UNL     1      17.051 -23.415  -0.496  1.00  0.00    +0.185 C 
ATOM     24  O   UNL     1      15.945 -23.948  -0.611  1.00  0.00    -0.292 OA
BRANCH  23  25
ATOM     25  C   UNL     1      17.206 -22.006  -0.951  1.00  0.00    +0.055 A 
ATOM     26  C   UNL     1      16.623 -20.985  -0.182  1.00  0.00    +0.018 A 
ATOM     27  C   UNL     1      17.898 -21.660  -2.115  1.00  0.00    +0.136 A 
ATOM     28  C   UNL     1      16.744 -19.650  -0.574  1.00  0.00    +0.040 A 
ATOM     29  C   UNL     1      18.023 -20.330  -2.510  1.00  0.00    +0.079 A 
ATOM     30  C   UNL     1      17.444 -19.335  -1.733  1.00  0.00    +0.126 A 
ATOM     31  F   UNL     1      18.453 -22.597  -2.896  1.00  0.00    -0.206 F 
ATOM     32  F   UNL     1      17.558 -18.056  -2.108  1.00  0.00    -0.207 F 
ENDBRANCH  23  25
ENDBRANCH  22  23
ENDBRANCH   6  22
TORSDOF 6
ENDMDL
MODEL 2
REMARK VINA RESULT:    -8.723      1.490      2.040
REMARK INTER + INTRA:         -13.276
REMARK INTER:                 -11.773
REMARK INTRA:                  -1.504
REMARK UNBOUND:                -1.494
REMARK SMILES CNS(=O)(=O)c1ccc(C2(C)NC(=O)N(CC(=O)c3ccc(F)cc3F)C2=O)cc1
REMARK SMILES IDX 10 1 11 2 12 3 13 4 14 5 15 6 27 7 28 8 9 10 6 11 7 12 30 13
REMARK SMILES IDX 8 14 29 15 3 16 4 17 5 18 2 19 1 20 16 22 17 23 18 24 19 25
REMARK SMILES IDX 20 26 25 27 21 28 24 29 22 30 26 31 23 32
REMARK H PARENT 12 9 2 21
ROOT
ATOM      1  C   UNL     1      18.198 -22.941   3.344  1.00  0.00    +0.144 C 
ATOM      2  C   UNL     1      18.356 -24.023   4.419  1.00  0.00    +0.051 C 
ATOM      3  N   UNL     1      19.503 -22.393   3.030  1.00  0.00    -0.319 N 
ATOM      4  C   UNL     1      19.901 -22.685   1.749  1.00  0.00    +0.325 C 
ATOM      5  O   UNL     1      20.927 -22.270   1.237  1.00  0.00    -0.248 OA
ATOM      6  N   UNL     1      18.959 -23.474   1.168  1.00  0.00    -0.254 N 
ATOM      7  C   UNL     1      17.891 -23.653   2.004  1.00  0.00    +0.261 C 
ATOM      8  O   UNL     1      16.875 -24.286   1.744  1.00  0.00    -0.271 OA
ATOM      9  H   UNL     1      20.002 -21.716   3.592  1.00  0.00    +0.166 HD
ENDROOT
BRANCH   1  10
ATOM     10  C   UNL     1      17.201 -21.823   3.648  1.00  0.00    -0.013 A 
ATOM     11  C   UNL     1      15.354 -19.786   4.269  1.00  0.00    +0.082 A 
ATOM     12  C   UNL     1      16.183 -19.656   3.155  1.00  0.00    +0.022 A 
ATOM     13  C   UNL     1      15.412 -20.929   5.064  1.00  0.00    +0.022 A 
ATOM     14  C   UNL     1      17.100 -20.667   2.851  1.00  0.00    +0.008 A 
ATOM     15  C   UNL     1      16.333 -21.934   4.756  1.00  0.00    +0.008 A 
BRANCH  11  16
ATOM     16  S   UNL     1      14.188 -18.502   4.647  1.00  0.00    +0.240 S 
ATOM     17  O   UNL     1      13.080 -19.090   5.365  1.00  0.00    -0.207 OA
ATOM     18  O   UNL     1      13.990 -17.718   3.447  1.00  0.00    -0.207 OA
BRANCH  16  19
ATOM     19  N   UNL     1      15.048 -17.533   5.708  1.00  0.00    -0.214 NA
ATOM     20  C   UNL     1      16.052 -18.117   6.583  1.00  0.00    +0.120 C 
ATOM     21  H   UNL     1      15.139 -16.561   5.421  1.00  0.00    +0.141 HD
ENDBRANCH  16  19
ENDBRANCH  11  16
ENDBRANCH   1  10
BRANCH   6  22
ATOM     22  C   UNL     1      19.005 -23.903  -0.213  1.00  0.00    +0.211 C 
BRANCH  22  23
ATOM     23  C   UNL     1      19.101 -22.673  -1.112  1.00  0.00    +0.185 C 
ATOM     24  O   UNL     1      19.988 -22.535  -1.958  1.00  0.00    -0.292 OA
BRANCH  23  25
ATOM     25  C   UNL     1      18.091 -21.589  -0.965  1.00  0.00    +0.055 A 
ATOM     26  C   UNL     1      18.541 -20.285  -0.701  1.00  0.00    +0.018 A 
ATOM     27  C   UNL     1      16.716 -21.819  -1.068  1.00  0.00    +0.136 A 
ATOM     28  C   UNL     1      17.627 -19.239  -0.556  1.00  0.00    +0.040 A 
ATOM     29  C   UNL     1      15.801 -20.780  -0.925  1.00  0.00    +0.079 A 
ATOM     30  C   UNL     1      16.266 -19.497  -0.670  1.00  0.00    +0.126 A 
ATOM     31  F   UNL     1      16.234 -23.049  -1.295  1.00  0.00    -0.206 F 
ATOM     32  F   UNL     1      15.390 -18.494  -0.529  1.00  0.00    -0.207 F 
ENDBRANCH  23  25
ENDBRANCH  22  23
ENDBRANCH   6  22
TORSDOF 6
ENDMDL
MODEL 3
REMARK VINA RESULT:    -8.601      2.589      4.670
REMARK INTER + INTRA:         -13.112
REMARK INTER:                 -11.757
REMARK INTRA:                  -1.355
REMARK UNBOUND:                -1.494
REMARK SMILES CNS(=O)(=O)c1ccc(C2(C)NC(=O)N(CC(=O)c3ccc(F)cc3F)C2=O)cc1
REMARK SMILES IDX 10 1 11 2 12 3 13 4 14 5 15 6 27 7 28 8 9 10 6 11 7 12 30 13
REMARK SMILES IDX 8 14 29 15 3 16 4 17 5 18 2 19 1 20 16 22 17 23 18 24 19 25
REMARK SMILES IDX 20 26 25 27 21 28 24 29 22 30 26 31 23 32
REMARK H PARENT 12 9 2 21
ROOT
ATOM      1  C   UNL     1      16.892 -19.658  -0.248  1.00  0.00    +0.144 C 
ATOM      2  C   UNL     1      17.605 -18.497  -0.952  1.00  0.00    +0.051 C 
ATOM      3  N   UNL     1      15.988 -20.295  -1.185  1.00  0.00    -0.319 N 
ATOM      4  C   UNL     1      16.368 -21.577  -1.494  1.00  0.00    +0.325 C 
ATOM      5  O   UNL     1      15.725 -22.333  -2.203  1.00  0.00    -0.248 OA
ATOM      6  N   UNL     1      17.543 -21.848  -0.866  1.00  0.00    -0.254 N 
ATOM      7  C   UNL     1      17.921 -20.801  -0.069  1.00  0.00    +0.261 C 
ATOM      8  O   UNL     1      18.914 -20.767   0.646  1.00  0.00    -0.271 OA
ATOM      9  H   UNL     1      15.078 -19.941  -1.451  1.00  0.00    +0.166 HD
ENDROOT
BRANCH   1  10
ATOM     10  C   UNL     1      16.170 -19.320   1.056  1.00  0.00    -0.013 A 
ATOM     11  C   UNL     1      14.796 -18.657   3.426  1.00  0.00    +0.082 A 
ATOM     12  C   UNL     1      15.637 -19.768   3.399  1.00  0.00    +0.022 A 
ATOM     13  C   UNL     1      14.650 -17.853   2.297  1.00  0.00    +0.022 A 
ATOM     14  C   UNL     1      16.315 -20.097   2.220  1.00  0.00    +0.008 A 
ATOM     15  C   UNL     1      15.327 -18.189   1.123  1.00  0.00    +0.008 A 
BRANCH  11  16
ATOM     16  S   UNL     1      13.942 -18.242   4.926  1.00  0.00    +0.240 S 
ATOM     17  O   UNL     1      13.561 -19.469   5.587  1.00  0.00    -0.207 OA
ATOM     18  O   UNL     1      12.975 -17.212   4.614  1.00  0.00    -0.207 OA
BRANCH  16  19
ATOM     19  N   UNL     1      15.141 -17.506   5.834  1.00  0.00    -0.214 NA
ATOM     20  C   UNL     1      16.097 -18.311   6.577  1.00  0.00    +0.120 C 
ATOM     21  H   UNL     1      15.412 -16.579   5.512  1.00  0.00    +0.141 HD
ENDBRANCH  16  19
ENDBRANCH  11  16
ENDBRANCH   1  10
BRANCH   6  22
ATOM     22  C   UNL     1      18.195 -23.138  -0.894  1.00  0.00    +0.211 C 
BRANCH  22  23
ATOM     23  C   UNL     1      17.639 -24.001   0.236  1.00  0.00    +0.185 C 
ATOM     24  O   UNL     1      16.753 -24.841   0.058  1.00  0.00    -0.292 OA
BRANCH  23  25
ATOM     25  C   UNL     1      18.178 -23.825   1.613  1.00  0.00    +0.055 A 
ATOM     26  C   UNL     1      19.551 -24.033   1.826  1.00  0.00    +0.018 A 
ATOM     27  C   UNL     1      17.373 -23.473   2.700  1.00  0.00    +0.136 A 
ATOM     28  C   UNL     1      20.098 -23.878   3.102  1.00  0.00    +0.040 A 
ATOM     29  C   UNL     1      17.913 -23.317   3.973  1.00  0.00    +0.079 A 
ATOM     30  C   UNL     1      19.274 -23.521   4.163  1.00  0.00    +0.126 A 
ATOM     31  F   UNL     1      16.054 -23.287   2.554  1.00  0.00    -0.206 F 
ATOM     32  F   UNL     1      19.799 -23.375   5.386  1.00  0.00    -0.207 F 
ENDBRANCH  23  25
ENDBRANCH  22  23
ENDBRANCH   6  22
TORSDOF 6
ENDMDL
MODEL 4
REMARK VINA RESULT:    -8.508      3.863      6.914
REMARK INTER + INTRA:         -12.986
REMARK INTER:                 -12.211
REMARK INTRA:                  -0.775
REMARK UNBOUND:                -1.494
REMARK SMILES CNS(=O)(=O)c1ccc(C2(C)NC(=O)N(CC(=O)c3ccc(F)cc3F)C2=O)cc1
REMARK SMILES IDX 10 1 11 2 12 3 13 4 14 5 15 6 27 7 28 8 9 10 6 11 7 12 30 13
REMARK SMILES IDX 8 14 29 15 3 16 4 17 5 18 2 19 1 20 16 22 17 23 18 24 19 25
REMARK SMILES IDX 20 26 25 27 21 28 24 29 22 30 26 31 23 32
REMARK H PARENT 12 9 2 21
ROOT
ATOM      1  C   UNL     1      18.468 -21.641  -1.330  1.00  0.00    +0.144 C 
ATOM      2  C   UNL     1      18.348 -22.529  -2.574  1.00  0.00    +0.051 C 
ATOM      3  N   UNL     1      18.795 -20.291  -1.742  1.00  0.00    -0.319 N 
ATOM      4  C   UNL     1      17.784 -19.400  -1.477  1.00  0.00    +0.325 C 
ATOM      5  O   UNL     1      17.860 -18.198  -1.668  1.00  0.00    -0.248 OA
ATOM      6  N   UNL     1      16.729 -20.080  -0.955  1.00  0.00    -0.254 N 
ATOM      7  C   UNL     1      17.039 -21.402  -0.784  1.00  0.00    +0.261 C 
ATOM      8  O   UNL     1      16.303 -22.254  -0.303  1.00  0.00    -0.271 OA
ATOM      9  H   UNL     1      19.714 -19.971  -2.018  1.00  0.00    +0.166 HD
ENDROOT
BRANCH   1  10
ATOM     10  C   UNL     1      19.429 -22.122  -0.243  1.00  0.00    -0.013 A 
ATOM     11  C   UNL     1      21.163 -22.980   1.807  1.00  0.00    +0.082 A 
ATOM     12  C   UNL     1      21.238 -23.566   0.544  1.00  0.00    +0.022 A 
ATOM     13  C   UNL     1      20.255 -21.953   2.058  1.00  0.00    +0.022 A 
ATOM     14  C   UNL     1      20.374 -23.141  -0.470  1.00  0.00    +0.008 A 
ATOM     15  C   UNL     1      19.394 -21.535   1.040  1.00  0.00    +0.008 A 
BRANCH  11  16
ATOM     16  S   UNL     1      22.265 -23.521   3.089  1.00  0.00    +0.240 S 
ATOM     17  O   UNL     1      23.095 -24.580   2.560  1.00  0.00    -0.207 OA
ATOM     18  O   UNL     1      21.487 -23.694   4.297  1.00  0.00    -0.207 OA
BRANCH  16  19
ATOM     19  N   UNL     1      23.226 -22.172   3.334  1.00  0.00    -0.214 NA
ATOM     20  C   UNL     1      24.324 -22.218   4.287  1.00  0.00    +0.120 C 
ATOM     21  H   UNL     1      23.278 -21.535   2.542  1.00  0.00    +0.141 HD
ENDBRANCH  16  19
ENDBRANCH  11  16
ENDBRANCH   1  10
BRANCH   6  22
ATOM     22  C   UNL     1      15.520 -19.449  -0.474  1.00  0.00    +0.211 C 
BRANCH  22  23
ATOM     23  C   UNL     1      15.867 -18.539   0.701  1.00  0.00    +0.185 C 
ATOM     24  O   UNL     1      16.278 -17.386   0.552  1.00  0.00    -0.292 OA
BRANCH  23  25
ATOM     25  C   UNL     1      15.712 -19.059   2.088  1.00  0.00    +0.055 A 
ATOM     26  C   UNL     1      16.534 -20.120   2.502  1.00  0.00    +0.018 A 
ATOM     27  C   UNL     1      14.775 -18.543   2.987  1.00  0.00    +0.136 A 
ATOM     28  C   UNL     1      16.421 -20.638   3.794  1.00  0.00    +0.040 A 
ATOM     29  C   UNL     1      14.658 -19.055   4.276  1.00  0.00    +0.079 A 
ATOM     30  C   UNL     1      15.484 -20.100   4.669  1.00  0.00    +0.126 A 
ATOM     31  F   UNL     1      13.950 -17.547   2.634  1.00  0.00    -0.206 F 
ATOM     32  F   UNL     1      15.375 -20.598   5.907  1.00  0.00    -0.207 F 
ENDBRANCH  23  25
ENDBRANCH  22  23
ENDBRANCH   6  22
TORSDOF 6
ENDMDL
MODEL 5
REMARK VINA RESULT:    -8.420      3.983      7.227
REMARK INTER + INTRA:         -12.867
REMARK INTER:                 -12.235
REMARK INTRA:                  -0.632
REMARK UNBOUND:                -1.494
REMARK SMILES CNS(=O)(=O)c1ccc(C2(C)NC(=O)N(CC(=O)c3ccc(F)cc3F)C2=O)cc1
REMARK SMILES IDX 10 1 11 2 12 3 13 4 14 5 15 6 27 7 28 8 9 10 6 11 7 12 30 13
REMARK SMILES IDX 8 14 29 15 3 16 4 17 5 18 2 19 1 20 16 22 17 23 18 24 19 25
REMARK SMILES IDX 20 26 25 27 21 28 24 29 22 30 26 31 23 32
REMARK H PARENT 12 9 2 21
ROOT
ATOM      1  C   UNL     1      18.372 -21.458  -1.215  1.00  0.00    +0.144 C 
ATOM      2  C   UNL     1      18.022 -22.330  -2.426  1.00  0.00    +0.051 C 
ATOM      3  N   UNL     1      18.643 -20.108  -1.666  1.00  0.00    -0.319 N 
ATOM      4  C   UNL     1      17.708 -19.207  -1.220  1.00  0.00    +0.325 C 
ATOM      5  O   UNL     1      17.767 -18.004  -1.412  1.00  0.00    -0.248 OA
ATOM      6  N   UNL     1      16.750 -19.878  -0.527  1.00  0.00    -0.254 N 
ATOM      7  C   UNL     1      17.064 -21.206  -0.425  1.00  0.00    +0.261 C 
ATOM      8  O   UNL     1      16.411 -22.053   0.171  1.00  0.00    -0.271 OA
ATOM      9  H   UNL     1      19.504 -19.798  -2.097  1.00  0.00    +0.166 HD
ENDROOT
BRANCH   1  10
ATOM     10  C   UNL     1      19.501 -21.965  -0.317  1.00  0.00    -0.013 A 
ATOM     11  C   UNL     1      21.620 -22.911   1.283  1.00  0.00    +0.082 A 
ATOM     12  C   UNL     1      20.591 -22.169   1.861  1.00  0.00    +0.022 A 
ATOM     13  C   UNL     1      21.596 -23.213  -0.078  1.00  0.00    +0.022 A 
ATOM     14  C   UNL     1      19.543 -21.698   1.064  1.00  0.00    +0.008 A 
ATOM     15  C   UNL     1      20.547 -22.737  -0.868  1.00  0.00    +0.008 A 
BRANCH  11  16
ATOM     16  S   UNL     1      22.946 -23.510   2.300  1.00  0.00    +0.240 S 
ATOM     17  O   UNL     1      24.063 -23.839   1.444  1.00  0.00    -0.207 OA
ATOM     18  O   UNL     1      22.391 -24.468   3.231  1.00  0.00    -0.207 OA
BRANCH  16  19
ATOM     19  N   UNL     1      23.352 -22.157   3.199  1.00  0.00    -0.214 NA
ATOM     20  C   UNL     1      24.635 -22.088   3.880  1.00  0.00    +0.120 C 
ATOM     21  H   UNL     1      22.894 -21.296   2.906  1.00  0.00    +0.141 HD
ENDBRANCH  16  19
ENDBRANCH  11  16
ENDBRANCH   1  10
BRANCH   6  22
ATOM     22  C   UNL     1      15.654 -19.235   0.163  1.00  0.00    +0.211 C 
BRANCH  22  23
ATOM     23  C   UNL     1      16.044 -19.018   1.622  1.00  0.00    +0.185 C 
ATOM     24  O   UNL     1      17.166 -19.287   2.059  1.00  0.00    -0.292 OA
BRANCH  23  25
ATOM     25  C   UNL     1      15.034 -18.465   2.566  1.00  0.00    +0.055 A 
ATOM     26  C   UNL     1      14.310 -17.324   2.180  1.00  0.00    +0.018 A 
ATOM     27  C   UNL     1      14.785 -19.027   3.821  1.00  0.00    +0.136 A 
ATOM     28  C   UNL     1      13.354 -16.772   3.035  1.00  0.00    +0.040 A 
ATOM     29  C   UNL     1      13.832 -18.481   4.677  1.00  0.00    +0.079 A 
ATOM     30  C   UNL     1      13.123 -17.357   4.275  1.00  0.00    +0.126 A 
ATOM     31  F   UNL     1      15.465 -20.100   4.247  1.00  0.00    -0.206 F 
ATOM     32  F   UNL     1      12.207 -16.827   5.094  1.00  0.00    -0.207 F 
ENDBRANCH  23  25
ENDBRANCH  22  23
ENDBRANCH   6  22
TORSDOF 6
ENDMDL
MODEL 6
REMARK VINA RESULT:    -8.148      4.649      8.562
REMARK INTER + INTRA:         -12.500
REMARK INTER:                 -12.066
REMARK INTRA:                  -0.434
REMARK UNBOUND:                -1.494
REMARK SMILES CNS(=O)(=O)c1ccc(C2(C)NC(=O)N(CC(=O)c3ccc(F)cc3F)C2=O)cc1
REMARK SMILES IDX 10 1 11 2 12 3 13 4 14 5 15 6 27 7 28 8 9 10 6 11 7 12 30 13
REMARK SMILES IDX 8 14 29 15 3 16 4 17 5 18 2 19 1 20 16 22 17 23 18 24 19 25
REMARK SMILES IDX 20 26 25 27 21 28 24 29 22 30 26 31 23 32
REMARK H PARENT 12 9 2 21
ROOT
ATOM      1  C   UNL     1      16.877 -21.539  -1.248  1.00  0.00    +0.144 C 
ATOM      2  C   UNL     1      15.751 -22.578  -1.295  1.00  0.00    +0.051 C 
ATOM      3  N   UNL     1      16.334 -20.239  -1.589  1.00  0.00    -0.319 N 
ATOM      4  C   UNL     1      16.369 -19.362  -0.532  1.00  0.00    +0.325 C 
ATOM      5  O   UNL     1      16.034 -18.191  -0.601  1.00  0.00    -0.248 OA
ATOM      6  N   UNL     1      16.853 -20.011   0.559  1.00  0.00    -0.254 N 
ATOM      7  C   UNL     1      17.225 -21.289   0.239  1.00  0.00    +0.261 C 
ATOM      8  O   UNL     1      17.726 -22.102   1.005  1.00  0.00    -0.271 OA
ATOM      9  H   UNL     1      16.124 -19.921  -2.525  1.00  0.00    +0.166 HD
ENDROOT
BRANCH   1  10
ATOM     10  C   UNL     1      18.117 -21.844  -2.089  1.00  0.00    -0.013 A 
ATOM     11  C   UNL     1      20.398 -22.345  -3.667  1.00  0.00    +0.082 A 
ATOM     12  C   UNL     1      20.127 -23.152  -2.562  1.00  0.00    +0.022 A 
ATOM     13  C   UNL     1      19.535 -21.308  -4.014  1.00  0.00    +0.022 A 
ATOM     14  C   UNL     1      18.996 -22.899  -1.779  1.00  0.00    +0.008 A 
ATOM     15  C   UNL     1      18.409 -21.059  -3.225  1.00  0.00    +0.008 A 
BRANCH  11  16
ATOM     16  S   UNL     1      21.833 -22.674  -4.659  1.00  0.00    +0.240 S 
ATOM     17  O   UNL     1      22.682 -23.596  -3.940  1.00  0.00    -0.207 OA
ATOM     18  O   UNL     1      22.329 -21.407  -5.153  1.00  0.00    -0.207 OA
BRANCH  16  19
ATOM     19  N   UNL     1      21.185 -23.475  -5.979  1.00  0.00    -0.214 NA
ATOM     20  C   UNL     1      20.719 -22.726  -7.135  1.00  0.00    +0.120 C 
ATOM     21  H   UNL     1      21.513 -24.431  -6.101  1.00  0.00    +0.141 HD
ENDBRANCH  16  19
ENDBRANCH  11  16
ENDBRANCH   1  10
BRANCH   6  22
ATOM     22  C   UNL     1      17.110 -19.372   1.830  1.00  0.00    +0.211 C 
BRANCH  22  23
ATOM     23  C   UNL     1      15.809 -19.302   2.625  1.00  0.00    +0.185 C 
ATOM     24  O   UNL     1      14.872 -18.566   2.304  1.00  0.00    -0.292 OA
BRANCH  23  25
ATOM     25  C   UNL     1      15.658 -20.148   3.841  1.00  0.00    +0.055 A 
ATOM     26  C   UNL     1      16.555 -21.212   4.032  1.00  0.00    +0.018 A 
ATOM     27  C   UNL     1      14.655 -19.933   4.790  1.00  0.00    +0.136 A 
ATOM     28  C   UNL     1      16.448 -22.030   5.159  1.00  0.00    +0.040 A 
ATOM     29  C   UNL     1      14.545 -20.746   5.915  1.00  0.00    +0.079 A 
ATOM     30  C   UNL     1      15.445 -21.789   6.090  1.00  0.00    +0.126 A 
ATOM     31  F   UNL     1      13.760 -18.947   4.642  1.00  0.00    -0.206 F 
ATOM     32  F   UNL     1      15.342 -22.574   7.169  1.00  0.00    -0.207 F 
ENDBRANCH  23  25
ENDBRANCH  22  23
ENDBRANCH   6  22
TORSDOF 6
ENDMDL
MODEL 7
REMARK VINA RESULT:    -8.081      2.250      3.040
REMARK INTER + INTRA:         -12.409
REMARK INTER:                 -10.847
REMARK INTRA:                  -1.562
REMARK UNBOUND:                -1.494
REMARK SMILES CNS(=O)(=O)c1ccc(C2(C)NC(=O)N(CC(=O)c3ccc(F)cc3F)C2=O)cc1
REMARK SMILES IDX 10 1 11 2 12 3 13 4 14 5 15 6 27 7 28 8 9 10 6 11 7 12 30 13
REMARK SMILES IDX 8 14 29 15 3 16 4 17 5 18 2 19 1 20 16 22 17 23 18 24 19 25
REMARK SMILES IDX 20 26 25 27 21 28 24 29 22 30 26 31 23 32
REMARK H PARENT 12 9 2 21
ROOT
ATOM      1  C   UNL     1      18.093 -24.529   1.499  1.00  0.00    +0.144 C 
ATOM      2  C   UNL     1      17.828 -26.039   1.476  1.00  0.00    +0.051 C 
ATOM      3  N   UNL     1      19.516 -24.296   1.354  1.00  0.00    -0.319 N 
ATOM      4  C   UNL     1      19.830 -23.672   0.172  1.00  0.00    +0.325 C 
ATOM      5  O   UNL     1      20.953 -23.310  -0.136  1.00  0.00    -0.248 OA
ATOM      6  N   UNL     1      18.692 -23.515  -0.555  1.00  0.00    -0.254 N 
ATOM      7  C   UNL     1      17.601 -23.946   0.151  1.00  0.00    +0.261 C 
ATOM      8  O   UNL     1      16.438 -23.899  -0.229  1.00  0.00    -0.271 OA
ATOM      9  H   UNL     1      20.201 -24.394   2.092  1.00  0.00    +0.166 HD
ENDROOT
BRANCH   1  10
ATOM     10  C   UNL     1      17.538 -23.760   2.698  1.00  0.00    -0.013 A 
ATOM     11  C   UNL     1      16.458 -22.337   4.877  1.00  0.00    +0.082 A 
ATOM     12  C   UNL     1      17.630 -23.073   5.042  1.00  0.00    +0.022 A 
ATOM     13  C   UNL     1      15.829 -22.276   3.635  1.00  0.00    +0.022 A 
ATOM     14  C   UNL     1      18.162 -23.781   3.959  1.00  0.00    +0.008 A 
ATOM     15  C   UNL     1      16.365 -22.988   2.559  1.00  0.00    +0.008 A 
BRANCH  11  16
ATOM     16  S   UNL     1      15.789 -21.436   6.254  1.00  0.00    +0.240 S 
ATOM     17  O   UNL     1      16.519 -20.195   6.383  1.00  0.00    -0.207 OA
ATOM     18  O   UNL     1      15.651 -22.358   7.360  1.00  0.00    -0.207 OA
BRANCH  16  19
ATOM     19  N   UNL     1      14.237 -21.082   5.736  1.00  0.00    -0.214 NA
ATOM     20  C   UNL     1      13.857 -19.709   5.445  1.00  0.00    +0.120 C 
ATOM     21  H   UNL     1      13.763 -21.845   5.257  1.00  0.00    +0.141 HD
ENDBRANCH  16  19
ENDBRANCH  11  16
ENDBRANCH   1  10
BRANCH   6  22
ATOM     22  C   UNL     1      18.631 -22.815  -1.818  1.00  0.00    +0.211 C 
BRANCH  22  23
ATOM     23  C   UNL     1      18.832 -21.322  -1.570  1.00  0.00    +0.185 C 
ATOM     24  O   UNL     1      19.773 -20.688  -2.050  1.00  0.00    -0.292 OA
BRANCH  23  25
ATOM     25  C   UNL     1      17.858 -20.596  -0.709  1.00  0.00    +0.055 A 
ATOM     26  C   UNL     1      16.678 -20.107  -1.296  1.00  0.00    +0.018 A 
ATOM     27  C   UNL     1      18.074 -20.372   0.653  1.00  0.00    +0.136 A 
ATOM     28  C   UNL     1      15.739 -19.420  -0.525  1.00  0.00    +0.040 A 
ATOM     29  C   UNL     1      17.140 -19.688   1.427  1.00  0.00    +0.079 A 
ATOM     30  C   UNL     1      15.978 -19.218   0.830  1.00  0.00    +0.126 A 
ATOM     31  F   UNL     1      19.193 -20.797   1.256  1.00  0.00    -0.206 F 
ATOM     32  F   UNL     1      15.077 -18.558   1.568  1.00  0.00    -0.207 F 
ENDBRANCH  23  25
ENDBRANCH  22  23
ENDBRANCH   6  22
TORSDOF 6
ENDMDL
MODEL 8
REMARK VINA RESULT:    -7.908      4.418      8.217
REMARK INTER + INTRA:         -12.175
REMARK INTER:                 -12.003
REMARK INTRA:                  -0.172
REMARK UNBOUND:                -1.494
REMARK SMILES CNS(=O)(=O)c1ccc(C2(C)NC(=O)N(CC(=O)c3ccc(F)cc3F)C2=O)cc1
REMARK SMILES IDX 10 1 11 2 12 3 13 4 14 5 15 6 27 7 28 8 9 10 6 11 7 12 30 13
REMARK SMILES IDX 8 14 29 15 3 16 4 17 5 18 2 19 1 20 16 22 17 23 18 24 19 25
REMARK SMILES IDX 20 26 25 27 21 28 24 29 22 30 26 31 23 32
REMARK H PARENT 12 9 2 21
ROOT
ATOM      1  C   UNL     1      16.923 -21.561  -0.612  1.00  0.00    +0.144 C 
ATOM      2  C   UNL     1      15.818 -22.618  -0.720  1.00  0.00    +0.051 C 
ATOM      3  N   UNL     1      16.387 -20.275  -1.015  1.00  0.00    -0.319 N 
ATOM      4  C   UNL     1      16.332 -19.379   0.025  1.00  0.00    +0.325 C 
ATOM      5  O   UNL     1      15.986 -18.215  -0.090  1.00  0.00    -0.248 OA
ATOM      6  N   UNL     1      16.744 -20.002   1.160  1.00  0.00    -0.254 N 
ATOM      7  C   UNL     1      17.157 -21.279   0.892  1.00  0.00    +0.261 C 
ATOM      8  O   UNL     1      17.613 -22.071   1.708  1.00  0.00    -0.271 OA
ATOM      9  H   UNL     1      16.241 -19.978  -1.970  1.00  0.00    +0.166 HD
ENDROOT
BRANCH   1  10
ATOM     10  C   UNL     1      18.225 -21.860  -1.354  1.00  0.00    -0.013 A 
ATOM     11  C   UNL     1      20.654 -22.433  -2.665  1.00  0.00    +0.082 A 
ATOM     12  C   UNL     1      19.488 -22.258  -3.409  1.00  0.00    +0.022 A 
ATOM     13  C   UNL     1      20.634 -22.300  -1.278  1.00  0.00    +0.022 A 
ATOM     14  C   UNL     1      18.283 -21.977  -2.755  1.00  0.00    +0.008 A 
ATOM     15  C   UNL     1      19.427 -22.022  -0.631  1.00  0.00    +0.008 A 
BRANCH  11  16
ATOM     16  S   UNL     1      22.181 -22.785  -3.500  1.00  0.00    +0.240 S 
ATOM     17  O   UNL     1      21.901 -23.676  -4.603  1.00  0.00    -0.207 OA
ATOM     18  O   UNL     1      23.171 -23.104  -2.494  1.00  0.00    -0.207 OA
BRANCH  16  19
ATOM     19  N   UNL     1      22.604 -21.290  -4.125  1.00  0.00    -0.214 NA
ATOM     20  C   UNL     1      22.035 -20.834  -5.382  1.00  0.00    +0.120 C 
ATOM     21  H   UNL     1      22.899 -20.606  -3.431  1.00  0.00    +0.141 HD
ENDBRANCH  16  19
ENDBRANCH  11  16
ENDBRANCH   1  10
BRANCH   6  22
ATOM     22  C   UNL     1      16.899 -19.337   2.435  1.00  0.00    +0.211 C 
BRANCH  22  23
ATOM     23  C   UNL     1      15.797 -19.809   3.380  1.00  0.00    +0.185 C 
ATOM     24  O   UNL     1      15.759 -20.953   3.840  1.00  0.00    -0.292 OA
BRANCH  23  25
ATOM     25  C   UNL     1      14.716 -18.859   3.762  1.00  0.00    +0.055 A 
ATOM     26  C   UNL     1      14.339 -17.867   2.841  1.00  0.00    +0.018 A 
ATOM     27  C   UNL     1      14.071 -18.907   5.001  1.00  0.00    +0.136 A 
ATOM     28  C   UNL     1      13.331 -16.955   3.159  1.00  0.00    +0.040 A 
ATOM     29  C   UNL     1      13.065 -18.001   5.323  1.00  0.00    +0.079 A 
ATOM     30  C   UNL     1      12.702 -17.032   4.397  1.00  0.00    +0.126 A 
ATOM     31  F   UNL     1      14.410 -19.818   5.923  1.00  0.00    -0.206 F 
ATOM     32  F   UNL     1      11.737 -16.156   4.702  1.00  0.00    -0.207 F 
ENDBRANCH  23  25
ENDBRANCH  22  23
ENDBRANCH   6  22
TORSDOF 6
ENDMDL
MODEL 9
REMARK VINA RESULT:    -7.789      4.166      7.870
REMARK INTER + INTRA:         -12.015
REMARK INTER:                 -11.130
REMARK INTRA:                  -0.885
REMARK UNBOUND:                -1.494
REMARK SMILES CNS(=O)(=O)c1ccc(C2(C)NC(=O)N(CC(=O)c3ccc(F)cc3F)C2=O)cc1
REMARK SMILES IDX 10 1 11 2 12 3 13 4 14 5 15 6 27 7 28 8 9 10 6 11 7 12 30 13
REMARK SMILES IDX 8 14 29 15 3 16 4 17 5 18 2 19 1 20 16 22 17 23 18 24 19 25
REMARK SMILES IDX 20 26 25 27 21 28 24 29 22 30 26 31 23 32
REMARK H PARENT 12 9 2 21
ROOT
ATOM      1  C   UNL     1      17.305 -22.667   0.738  1.00  0.00    +0.144 C 
ATOM      2  C   UNL     1      16.294 -23.803   0.544  1.00  0.00    +0.051 C 
ATOM      3  N   UNL     1      16.589 -21.410   0.843  1.00  0.00    -0.319 N 
ATOM      4  C   UNL     1      16.702 -20.844   2.089  1.00  0.00    +0.325 C 
ATOM      5  O   UNL     1      16.247 -19.754   2.392  1.00  0.00    -0.248 OA
ATOM      6  N   UNL     1      17.413 -21.683   2.888  1.00  0.00    -0.254 N 
ATOM      7  C   UNL     1      17.855 -22.769   2.181  1.00  0.00    +0.261 C 
ATOM      8  O   UNL     1      18.549 -23.677   2.622  1.00  0.00    -0.271 OA
ATOM      9  H   UNL     1      16.204 -20.891   0.066  1.00  0.00    +0.166 HD
ENDROOT
BRANCH   1  10
ATOM     10  C   UNL     1      18.422 -22.567  -0.301  1.00  0.00    -0.013 A 
ATOM     11  C   UNL     1      20.474 -22.316  -2.216  1.00  0.00    +0.082 A 
ATOM     12  C   UNL     1      20.312 -23.517  -1.526  1.00  0.00    +0.022 A 
ATOM     13  C   UNL     1      19.612 -21.246  -1.987  1.00  0.00    +0.022 A 
ATOM     14  C   UNL     1      19.294 -23.637  -0.574  1.00  0.00    +0.008 A 
ATOM     15  C   UNL     1      18.600 -21.372  -1.032  1.00  0.00    +0.008 A 
BRANCH  11  16
ATOM     16  S   UNL     1      21.765 -22.171  -3.427  1.00  0.00    +0.240 S 
ATOM     17  O   UNL     1      23.007 -22.593  -2.821  1.00  0.00    -0.207 OA
ATOM     18  O   UNL     1      21.628 -20.880  -4.066  1.00  0.00    -0.207 OA
BRANCH  16  19
ATOM     19  N   UNL     1      21.321 -23.313  -4.568  1.00  0.00    -0.214 NA
ATOM     20  C   UNL     1      20.252 -23.030  -5.512  1.00  0.00    +0.120 C 
ATOM     21  H   UNL     1      22.059 -23.965  -4.829  1.00  0.00    +0.141 HD
ENDBRANCH  16  19
ENDBRANCH  11  16
ENDBRANCH   1  10
BRANCH   6  22
ATOM     22  C   UNL     1      17.803 -21.370   4.245  1.00  0.00    +0.211 C 
BRANCH  22  23
ATOM     23  C   UNL     1      16.635 -21.671   5.180  1.00  0.00    +0.185 C 
ATOM     24  O   UNL     1      16.475 -22.771   5.713  1.00  0.00    -0.292 OA
BRANCH  23  25
ATOM     25  C   UNL     1      15.639 -20.600   5.461  1.00  0.00    +0.055 A 
ATOM     26  C   UNL     1      16.095 -19.390   6.013  1.00  0.00    +0.018 A 
ATOM     27  C   UNL     1      14.273 -20.752   5.209  1.00  0.00    +0.136 A 
ATOM     28  C   UNL     1      15.195 -18.360   6.293  1.00  0.00    +0.040 A 
ATOM     29  C   UNL     1      13.372 -19.728   5.486  1.00  0.00    +0.079 A 
ATOM     30  C   UNL     1      13.843 -18.538   6.025  1.00  0.00    +0.126 A 
ATOM     31  F   UNL     1      13.785 -21.894   4.706  1.00  0.00    -0.206 F 
ATOM     32  F   UNL     1      12.981 -17.550   6.295  1.00  0.00    -0.207 F 
ENDBRANCH  23  25
ENDBRANCH  22  23
ENDBRANCH   6  22
TORSDOF 6
ENDMDL
