MODEL 1
REMARK VINA RESULT:    -9.289      0.000      0.000
REMARK INTER + INTRA:         -11.627
REMARK INTER:                 -11.461
REMARK INTRA:                  -0.166
REMARK UNBOUND:                -0.166
REMARK SMILES Cc1ccnc(NC(=O)c2ccsc2NC(=O)c2ccn3cnnc3c2)n1
REMARK SMILES IDX 10 1 11 2 12 3 13 4 14 5 8 6 7 7 9 8 6 10 2 11 3 12 27 13
REMARK SMILES IDX 4 14 5 15 1 16 15 17 16 18 17 19 18 21 19 22 26 23 20 24
REMARK SMILES IDX 25 25 21 26 24 27 22 28 23 29
REMARK H PARENT 7 9 15 20
ROOT
ATOM      1  C   UNL     1      14.286 -17.724   2.942  1.00  0.00    +0.075 A 
ATOM      2  C   UNL     1      13.189 -16.874   3.335  1.00  0.00    +0.028 A 
ATOM      3  C   UNL     1      12.735 -17.144   4.608  1.00  0.00    +0.068 A 
ATOM      4  S   UNL     1      13.607 -18.412   5.333  1.00  0.00    -0.126 S 
ATOM      5  C   UNL     1      14.595 -18.611   3.970  1.00  0.00    +0.108 A 
ENDROOT
BRANCH   1   6
ATOM      6  C   UNL     1      15.020 -17.733   1.660  1.00  0.00    +0.261 C 
ATOM      7  N   UNL     1      15.425 -18.975   1.248  1.00  0.00    -0.290 N 
ATOM      8  O   UNL     1      15.210 -16.678   1.059  1.00  0.00    -0.269 OA
ATOM      9  H   UNL     1      15.196 -19.803   1.766  1.00  0.00    +0.173 HD
BRANCH   7  10
ATOM     10  C   UNL     1      16.133 -19.260   0.093  1.00  0.00    +0.229 A 
ATOM     11  C   UNL     1      16.371 -20.734  -1.656  1.00  0.00    +0.043 A 
ATOM     12  C   UNL     1      17.400 -19.984  -2.182  1.00  0.00    +0.044 A 
ATOM     13  N   UNL     1      15.730 -20.385  -0.520  1.00  0.00    -0.218 NA
ATOM     14  C   UNL     1      17.737 -18.854  -1.477  1.00  0.00    +0.117 A 
ATOM     15  N   UNL     1      17.121 -18.476  -0.343  1.00  0.00    -0.221 NA
ATOM     16  C   UNL     1      15.923 -21.988  -2.344  1.00  0.00    +0.067 C 
ENDBRANCH   7  10
ENDBRANCH   1   6
BRANCH   5  17
ATOM     17  N   UNL     1      15.592 -19.576   3.926  1.00  0.00    -0.313 N 
ATOM     18  C   UNL     1      15.491 -20.913   4.246  1.00  0.00    +0.256 C 
ATOM     19  O   UNL     1      14.516 -21.512   4.681  1.00  0.00    -0.269 OA
ATOM     20  H   UNL     1      16.501 -19.213   3.639  1.00  0.00    +0.171 HD
BRANCH  18  21
ATOM     21  C   UNL     1      16.785 -21.646   4.040  1.00  0.00    +0.045 C 
ATOM     22  C   UNL     1      17.243 -22.696   4.958  1.00  0.00    +0.032 C 
ATOM     23  C   UNL     1      17.539 -21.268   2.983  1.00  0.00    +0.063 C 
ATOM     24  C   UNL     1      18.418 -23.308   4.720  1.00  0.00    +0.095 C 
ATOM     25  C   UNL     1      18.776 -21.923   2.731  1.00  0.00    +0.161 A 
ATOM     26  N   UNL     1      19.165 -22.920   3.612  1.00  0.00    -0.289 N 
ATOM     27  N   UNL     1      19.688 -21.792   1.793  1.00  0.00    -0.131 NA
ATOM     28  C   UNL     1      20.365 -23.365   3.138  1.00  0.00    +0.230 A 
ATOM     29  N   UNL     1      20.692 -22.703   2.050  1.00  0.00    -0.138 NA
ENDBRANCH  18  21
ENDBRANCH   5  17
TORSDOF 4
ENDMDL
MODEL 2
REMARK VINA RESULT:    -9.178      2.832      7.202
REMARK INTER + INTRA:         -11.490
REMARK INTER:                 -10.547
REMARK INTRA:                  -0.943
REMARK UNBOUND:                -0.166
REMARK SMILES Cc1ccnc(NC(=O)c2ccsc2NC(=O)c2ccn3cnnc3c2)n1
REMARK SMILES IDX 10 1 11 2 12 3 13 4 14 5 8 6 7 7 9 8 6 10 2 11 3 12 27 13
REMARK SMILES IDX 4 14 5 15 1 16 15 17 16 18 17 19 18 21 19 22 26 23 20 24
REMARK SMILES IDX 25 25 21 26 24 27 22 28 23 29
REMARK H PARENT 7 9 15 20
ROOT
ATOM      1  C   UNL     1      18.667 -21.493  -0.148  1.00  0.00    +0.075 A 
ATOM      2  C   UNL     1      19.077 -21.916  -1.465  1.00  0.00    +0.028 A 
ATOM      3  C   UNL     1      18.145 -21.617  -2.435  1.00  0.00    +0.068 A 
ATOM      4  S   UNL     1      16.780 -20.839  -1.780  1.00  0.00    -0.126 S 
ATOM      5  C   UNL     1      17.415 -20.889  -0.209  1.00  0.00    +0.108 A 
ENDROOT
BRANCH   1   6
ATOM      6  C   UNL     1      19.395 -21.648   1.129  1.00  0.00    +0.261 C 
ATOM      7  N   UNL     1      20.250 -22.716   1.166  1.00  0.00    -0.290 N 
ATOM      8  O   UNL     1      19.208 -20.842   2.038  1.00  0.00    -0.269 OA
ATOM      9  H   UNL     1      20.390 -23.309   0.368  1.00  0.00    +0.173 HD
BRANCH   7  10
ATOM     10  C   UNL     1      21.042 -23.089   2.239  1.00  0.00    +0.229 A 
ATOM     11  C   UNL     1      23.133 -22.934   3.183  1.00  0.00    +0.043 A 
ATOM     12  C   UNL     1      22.739 -23.715   4.247  1.00  0.00    +0.044 A 
ATOM     13  N   UNL     1      22.296 -22.614   2.173  1.00  0.00    -0.218 NA
ATOM     14  C   UNL     1      21.437 -24.153   4.217  1.00  0.00    +0.117 A 
ATOM     15  N   UNL     1      20.577 -23.855   3.229  1.00  0.00    -0.221 NA
ATOM     16  C   UNL     1      24.533 -22.403   3.113  1.00  0.00    +0.067 C 
ENDBRANCH   7  10
ENDBRANCH   1   6
BRANCH   5  17
ATOM     17  N   UNL     1      16.717 -20.375   0.876  1.00  0.00    -0.313 N 
ATOM     18  C   UNL     1      16.268 -19.084   1.059  1.00  0.00    +0.256 C 
ATOM     19  O   UNL     1      16.437 -18.116   0.327  1.00  0.00    -0.269 OA
ATOM     20  H   UNL     1      16.551 -21.056   1.617  1.00  0.00    +0.171 HD
BRANCH  18  21
ATOM     21  C   UNL     1      15.521 -18.920   2.351  1.00  0.00    +0.045 C 
ATOM     22  C   UNL     1      15.759 -19.792   3.508  1.00  0.00    +0.032 C 
ATOM     23  C   UNL     1      14.581 -17.949   2.393  1.00  0.00    +0.063 C 
ATOM     24  C   UNL     1      15.048 -19.596   4.633  1.00  0.00    +0.095 C 
ATOM     25  C   UNL     1      13.838 -17.741   3.587  1.00  0.00    +0.161 A 
ATOM     26  N   UNL     1      14.104 -18.574   4.661  1.00  0.00    -0.289 N 
ATOM     27  N   UNL     1      12.900 -16.882   3.925  1.00  0.00    -0.131 NA
ATOM     28  C   UNL     1      13.262 -18.157   5.652  1.00  0.00    +0.230 A 
ATOM     29  N   UNL     1      12.537 -17.145   5.230  1.00  0.00    -0.138 NA
ENDBRANCH  18  21
ENDBRANCH   5  17
TORSDOF 4
ENDMDL
MODEL 3
REMARK VINA RESULT:    -9.010      1.669      5.028
REMARK INTER + INTRA:         -11.283
REMARK INTER:                 -11.100
REMARK INTRA:                  -0.183
REMARK UNBOUND:                -0.166
REMARK SMILES Cc1ccnc(NC(=O)c2ccsc2NC(=O)c2ccn3cnnc3c2)n1
REMARK SMILES IDX 10 1 11 2 12 3 13 4 14 5 8 6 7 7 9 8 6 10 2 11 3 12 27 13
REMARK SMILES IDX 4 14 5 15 1 16 15 17 16 18 17 19 18 21 19 22 26 23 20 24
REMARK SMILES IDX 25 25 21 26 24 27 22 28 23 29
REMARK H PARENT 7 9 15 20
ROOT
ATOM      1  C   UNL     1      14.393 -19.211   4.747  1.00  0.00    +0.075 A 
ATOM      2  C   UNL     1      13.639 -18.493   5.746  1.00  0.00    +0.028 A 
ATOM      3  C   UNL     1      13.151 -17.291   5.283  1.00  0.00    +0.068 A 
ATOM      4  S   UNL     1      13.595 -17.010   3.664  1.00  0.00    -0.126 S 
ATOM      5  C   UNL     1      14.433 -18.481   3.563  1.00  0.00    +0.108 A 
ENDROOT
BRANCH   1   6
ATOM      6  C   UNL     1      15.068 -20.518   4.878  1.00  0.00    +0.261 C 
ATOM      7  N   UNL     1      16.187 -20.658   4.101  1.00  0.00    -0.290 N 
ATOM      8  O   UNL     1      14.615 -21.364   5.647  1.00  0.00    -0.269 OA
ATOM      9  H   UNL     1      16.528 -19.908   3.528  1.00  0.00    +0.173 HD
BRANCH   7  10
ATOM     10  C   UNL     1      16.995 -21.780   4.029  1.00  0.00    +0.229 A 
ATOM     11  C   UNL     1      17.499 -23.666   2.814  1.00  0.00    +0.043 A 
ATOM     12  C   UNL     1      18.476 -24.019   3.718  1.00  0.00    +0.044 A 
ATOM     13  N   UNL     1      16.751 -22.550   2.957  1.00  0.00    -0.218 NA
ATOM     14  C   UNL     1      18.644 -23.165   4.781  1.00  0.00    +0.117 A 
ATOM     15  N   UNL     1      17.918 -22.047   4.956  1.00  0.00    -0.221 NA
ATOM     16  C   UNL     1      17.230 -24.527   1.616  1.00  0.00    +0.067 C 
ENDBRANCH   7  10
ENDBRANCH   1   6
BRANCH   5  17
ATOM     17  N   UNL     1      15.082 -18.871   2.399  1.00  0.00    -0.313 N 
ATOM     18  C   UNL     1      15.506 -18.073   1.358  1.00  0.00    +0.256 C 
ATOM     19  O   UNL     1      15.351 -16.866   1.222  1.00  0.00    -0.269 OA
ATOM     20  H   UNL     1      15.229 -19.878   2.330  1.00  0.00    +0.171 HD
BRANCH  18  21
ATOM     21  C   UNL     1      16.201 -18.861   0.285  1.00  0.00    +0.045 C 
ATOM     22  C   UNL     1      17.110 -18.232  -0.682  1.00  0.00    +0.032 C 
ATOM     23  C   UNL     1      15.922 -20.182   0.220  1.00  0.00    +0.063 C 
ATOM     24  C   UNL     1      17.694 -18.995  -1.623  1.00  0.00    +0.095 C 
ATOM     25  C   UNL     1      16.548 -20.985  -0.773  1.00  0.00    +0.161 A 
ATOM     26  N   UNL     1      17.412 -20.357  -1.655  1.00  0.00    -0.289 N 
ATOM     27  N   UNL     1      16.492 -22.268  -1.059  1.00  0.00    -0.131 NA
ATOM     28  C   UNL     1      17.858 -21.347  -2.482  1.00  0.00    +0.230 A 
ATOM     29  N   UNL     1      17.320 -22.496  -2.138  1.00  0.00    -0.138 NA
ENDBRANCH  18  21
ENDBRANCH   5  17
TORSDOF 4
ENDMDL
MODEL 4
REMARK VINA RESULT:    -8.845      2.881      7.320
REMARK INTER + INTRA:         -11.080
REMARK INTER:                 -10.146
REMARK INTRA:                  -0.934
REMARK UNBOUND:                -0.166
REMARK SMILES Cc1ccnc(NC(=O)c2ccsc2NC(=O)c2ccn3cnnc3c2)n1
REMARK SMILES IDX 10 1 11 2 12 3 13 4 14 5 8 6 7 7 9 8 6 10 2 11 3 12 27 13
REMARK SMILES IDX 4 14 5 15 1 16 15 17 16 18 17 19 18 21 19 22 26 23 20 24
REMARK SMILES IDX 25 25 21 26 24 27 22 28 23 29
REMARK H PARENT 7 9 15 20
ROOT
ATOM      1  C   UNL     1      19.246 -21.674  -0.497  1.00  0.00    +0.075 A 
ATOM      2  C   UNL     1      19.796 -22.139  -1.747  1.00  0.00    +0.028 A 
ATOM      3  C   UNL     1      19.036 -21.768  -2.835  1.00  0.00    +0.068 A 
ATOM      4  S   UNL     1      17.665 -20.873  -2.371  1.00  0.00    -0.126 S 
ATOM      5  C   UNL     1      18.070 -20.966  -0.727  1.00  0.00    +0.108 A 
ENDROOT
BRANCH   1   6
ATOM      6  C   UNL     1      19.775 -21.881   0.867  1.00  0.00    +0.261 C 
ATOM      7  N   UNL     1      20.632 -22.942   0.986  1.00  0.00    -0.290 N 
ATOM      8  O   UNL     1      19.439 -21.121   1.773  1.00  0.00    -0.269 OA
ATOM      9  H   UNL     1      20.900 -23.496   0.193  1.00  0.00    +0.173 HD
BRANCH   7  10
ATOM     10  C   UNL     1      21.258 -23.358   2.149  1.00  0.00    +0.229 A 
ATOM     11  C   UNL     1      23.085 -23.065   3.514  1.00  0.00    +0.043 A 
ATOM     12  C   UNL     1      22.627 -24.036   4.378  1.00  0.00    +0.044 A 
ATOM     13  N   UNL     1      22.412 -22.717   2.397  1.00  0.00    -0.218 NA
ATOM     14  C   UNL     1      21.439 -24.632   4.032  1.00  0.00    +0.117 A 
ATOM     15  N   UNL     1      20.742 -24.312   2.928  1.00  0.00    -0.221 NA
ATOM     16  C   UNL     1      24.372 -22.350   3.796  1.00  0.00    +0.067 C 
ENDBRANCH   7  10
ENDBRANCH   1   6
BRANCH   5  17
ATOM     17  N   UNL     1      17.275 -20.387   0.253  1.00  0.00    -0.313 N 
ATOM     18  C   UNL     1      16.862 -19.075   0.342  1.00  0.00    +0.256 C 
ATOM     19  O   UNL     1      17.152 -18.141  -0.396  1.00  0.00    -0.269 OA
ATOM     20  H   UNL     1      16.999 -21.034   0.992  1.00  0.00    +0.171 HD
BRANCH  18  21
ATOM     21  C   UNL     1      15.980 -18.836   1.534  1.00  0.00    +0.045 C 
ATOM     22  C   UNL     1      14.999 -17.745   1.574  1.00  0.00    +0.032 C 
ATOM     23  C   UNL     1      16.157 -19.653   2.597  1.00  0.00    +0.063 C 
ATOM     24  C   UNL     1      14.246 -17.581   2.677  1.00  0.00    +0.095 C 
ATOM     25  C   UNL     1      15.354 -19.480   3.757  1.00  0.00    +0.161 A 
ATOM     26  N   UNL     1      14.428 -18.450   3.749  1.00  0.00    -0.289 N 
ATOM     27  N   UNL     1      15.283 -20.118   4.906  1.00  0.00    -0.131 NA
ATOM     28  C   UNL     1      13.811 -18.516   4.965  1.00  0.00    +0.230 A 
ATOM     29  N   UNL     1      14.308 -19.509   5.668  1.00  0.00    -0.138 NA
ENDBRANCH  18  21
ENDBRANCH   5  17
TORSDOF 4
ENDMDL
MODEL 5
REMARK VINA RESULT:    -8.473      4.103      6.347
REMARK INTER + INTRA:         -10.621
REMARK INTER:                  -9.608
REMARK INTRA:                  -1.013
REMARK UNBOUND:                -0.166
REMARK SMILES Cc1ccnc(NC(=O)c2ccsc2NC(=O)c2ccn3cnnc3c2)n1
REMARK SMILES IDX 10 1 11 2 12 3 13 4 14 5 8 6 7 7 9 8 6 10 2 11 3 12 27 13
REMARK SMILES IDX 4 14 5 15 1 16 15 17 16 18 17 19 18 21 19 22 26 23 20 24
REMARK SMILES IDX 25 25 21 26 24 27 22 28 23 29
REMARK H PARENT 7 9 15 20
ROOT
ATOM      1  C   UNL     1      17.599 -20.468   0.320  1.00  0.00    +0.075 A 
ATOM      2  C   UNL     1      17.348 -19.211  -0.342  1.00  0.00    +0.028 A 
ATOM      3  C   UNL     1      17.325 -19.327  -1.714  1.00  0.00    +0.068 A 
ATOM      4  S   UNL     1      17.612 -20.927  -2.217  1.00  0.00    -0.126 S 
ATOM      5  C   UNL     1      17.762 -21.479  -0.622  1.00  0.00    +0.108 A 
ENDROOT
BRANCH   1   6
ATOM      6  C   UNL     1      17.701 -20.731   1.771  1.00  0.00    +0.261 C 
ATOM      7  N   UNL     1      16.528 -20.574   2.458  1.00  0.00    -0.290 N 
ATOM      8  O   UNL     1      18.780 -21.071   2.254  1.00  0.00    -0.269 OA
ATOM      9  H   UNL     1      15.670 -20.339   1.992  1.00  0.00    +0.173 HD
BRANCH   7  10
ATOM     10  C   UNL     1      16.351 -20.751   3.820  1.00  0.00    +0.229 A 
ATOM     11  C   UNL     1      16.022 -19.687   5.832  1.00  0.00    +0.043 A 
ATOM     12  C   UNL     1      15.993 -20.894   6.495  1.00  0.00    +0.044 A 
ATOM     13  N   UNL     1      16.200 -19.601   4.496  1.00  0.00    -0.218 NA
ATOM     14  C   UNL     1      16.159 -22.010   5.712  1.00  0.00    +0.117 A 
ATOM     15  N   UNL     1      16.340 -21.962   4.381  1.00  0.00    -0.221 NA
ATOM     16  C   UNL     1      15.851 -18.404   6.589  1.00  0.00    +0.067 C 
ENDBRANCH   7  10
ENDBRANCH   1   6
BRANCH   5  17
ATOM     17  N   UNL     1      18.027 -22.811  -0.333  1.00  0.00    -0.313 N 
ATOM     18  C   UNL     1      17.214 -23.715   0.316  1.00  0.00    +0.256 C 
ATOM     19  O   UNL     1      16.114 -23.516   0.817  1.00  0.00    -0.269 OA
ATOM     20  H   UNL     1      18.952 -23.119  -0.634  1.00  0.00    +0.171 HD
BRANCH  18  21
ATOM     21  C   UNL     1      17.840 -25.078   0.410  1.00  0.00    +0.045 C 
ATOM     22  C   UNL     1      19.273 -25.297   0.176  1.00  0.00    +0.032 C 
ATOM     23  C   UNL     1      17.013 -26.111   0.684  1.00  0.00    +0.063 C 
ATOM     24  C   UNL     1      19.767 -26.545   0.268  1.00  0.00    +0.095 C 
ATOM     25  C   UNL     1      17.542 -27.427   0.787  1.00  0.00    +0.161 A 
ATOM     26  N   UNL     1      18.901 -27.590   0.576  1.00  0.00    -0.289 N 
ATOM     27  N   UNL     1      17.001 -28.595   1.057  1.00  0.00    -0.131 NA
ATOM     28  C   UNL     1      19.128 -28.926   0.734  1.00  0.00    +0.230 A 
ATOM     29  N   UNL     1      18.004 -29.542   1.024  1.00  0.00    -0.138 NA
ENDBRANCH  18  21
ENDBRANCH   5  17
TORSDOF 4
ENDMDL
MODEL 6
REMARK VINA RESULT:    -8.283      3.159      5.888
REMARK INTER + INTRA:         -10.386
REMARK INTER:                  -9.603
REMARK INTRA:                  -0.783
REMARK UNBOUND:                -0.166
REMARK SMILES Cc1ccnc(NC(=O)c2ccsc2NC(=O)c2ccn3cnnc3c2)n1
REMARK SMILES IDX 10 1 11 2 12 3 13 4 14 5 8 6 7 7 9 8 6 10 2 11 3 12 27 13
REMARK SMILES IDX 4 14 5 15 1 16 15 17 16 18 17 19 18 21 19 22 26 23 20 24
REMARK SMILES IDX 25 25 21 26 24 27 22 28 23 29
REMARK H PARENT 7 9 15 20
ROOT
ATOM      1  C   UNL     1      17.248 -20.777   0.690  1.00  0.00    +0.075 A 
ATOM      2  C   UNL     1      16.468 -20.347  -0.445  1.00  0.00    +0.028 A 
ATOM      3  C   UNL     1      17.158 -20.445  -1.633  1.00  0.00    +0.068 A 
ATOM      4  S   UNL     1      18.736 -21.041  -1.400  1.00  0.00    -0.126 S 
ATOM      5  C   UNL     1      18.515 -21.178   0.275  1.00  0.00    +0.108 A 
ENDROOT
BRANCH   1   6
ATOM      6  C   UNL     1      16.849 -20.808   2.113  1.00  0.00    +0.261 C 
ATOM      7  N   UNL     1      16.218 -19.674   2.548  1.00  0.00    -0.290 N 
ATOM      8  O   UNL     1      17.087 -21.806   2.791  1.00  0.00    -0.269 OA
ATOM      9  H   UNL     1      16.014 -18.912   1.928  1.00  0.00    +0.173 HD
BRANCH   7  10
ATOM     10  C   UNL     1      15.752 -19.442   3.831  1.00  0.00    +0.229 A 
ATOM     11  C   UNL     1      14.058 -18.518   5.083  1.00  0.00    +0.043 A 
ATOM     12  C   UNL     1      14.682 -18.895   6.252  1.00  0.00    +0.044 A 
ATOM     13  N   UNL     1      14.582 -18.784   3.867  1.00  0.00    -0.218 NA
ATOM     14  C   UNL     1      15.875 -19.560   6.105  1.00  0.00    +0.117 A 
ATOM     15  N   UNL     1      16.425 -19.842   4.912  1.00  0.00    -0.221 NA
ATOM     16  C   UNL     1      12.751 -17.785   5.126  1.00  0.00    +0.067 C 
ENDBRANCH   7  10
ENDBRANCH   1   6
BRANCH   5  17
ATOM     17  N   UNL     1      19.524 -21.641   1.108  1.00  0.00    -0.313 N 
ATOM     18  C   UNL     1      20.025 -22.922   1.201  1.00  0.00    +0.256 C 
ATOM     19  O   UNL     1      19.648 -23.923   0.605  1.00  0.00    -0.269 OA
ATOM     20  H   UNL     1      19.905 -20.925   1.727  1.00  0.00    +0.171 HD
BRANCH  18  21
ATOM     21  C   UNL     1      21.143 -23.025   2.199  1.00  0.00    +0.045 C 
ATOM     22  C   UNL     1      21.029 -23.835   3.418  1.00  0.00    +0.032 C 
ATOM     23  C   UNL     1      22.255 -22.300   1.945  1.00  0.00    +0.063 C 
ATOM     24  C   UNL     1      22.066 -23.877   4.275  1.00  0.00    +0.095 C 
ATOM     25  C   UNL     1      23.351 -22.354   2.851  1.00  0.00    +0.161 A 
ATOM     26  N   UNL     1      23.211 -23.144   3.980  1.00  0.00    -0.289 N 
ATOM     27  N   UNL     1      24.540 -21.793   2.857  1.00  0.00    -0.131 NA
ATOM     28  C   UNL     1      24.389 -23.009   4.656  1.00  0.00    +0.230 A 
ATOM     29  N   UNL     1      25.196 -22.207   3.998  1.00  0.00    -0.138 NA
ENDBRANCH  18  21
ENDBRANCH   5  17
TORSDOF 4
ENDMDL
MODEL 7
REMARK VINA RESULT:    -8.235      2.897      5.927
REMARK INTER + INTRA:         -10.327
REMARK INTER:                  -9.688
REMARK INTRA:                  -0.639
REMARK UNBOUND:                -0.166
REMARK SMILES Cc1ccnc(NC(=O)c2ccsc2NC(=O)c2ccn3cnnc3c2)n1
REMARK SMILES IDX 10 1 11 2 12 3 13 4 14 5 8 6 7 7 9 8 6 10 2 11 3 12 27 13
REMARK SMILES IDX 4 14 5 15 1 16 15 17 16 18 17 19 18 21 19 22 26 23 20 24
REMARK SMILES IDX 25 25 21 26 24 27 22 28 23 29
REMARK H PARENT 7 9 15 20
ROOT
ATOM      1  C   UNL     1      20.456 -23.317   1.717  1.00  0.00    +0.075 A 
ATOM      2  C   UNL     1      21.647 -24.128   1.654  1.00  0.00    +0.028 A 
ATOM      3  C   UNL     1      22.117 -24.483   2.899  1.00  0.00    +0.068 A 
ATOM      4  S   UNL     1      21.146 -23.847   4.145  1.00  0.00    -0.126 S 
ATOM      5  C   UNL     1      20.095 -23.100   3.044  1.00  0.00    +0.108 A 
ENDROOT
BRANCH   1   6
ATOM      6  C   UNL     1      19.679 -22.746   0.597  1.00  0.00    +0.261 C 
ATOM      7  N   UNL     1      18.325 -22.738   0.794  1.00  0.00    -0.290 N 
ATOM      8  O   UNL     1      20.265 -22.322  -0.398  1.00  0.00    -0.269 OA
ATOM      9  H   UNL     1      17.914 -23.059   1.652  1.00  0.00    +0.173 HD
BRANCH   7  10
ATOM     10  C   UNL     1      17.374 -22.269  -0.097  1.00  0.00    +0.229 A 
ATOM     11  C   UNL     1      16.219 -20.416  -0.819  1.00  0.00    +0.043 A 
ATOM     12  C   UNL     1      15.544 -21.170  -1.754  1.00  0.00    +0.044 A 
ATOM     13  N   UNL     1      17.135 -20.953   0.016  1.00  0.00    -0.218 NA
ATOM     14  C   UNL     1      15.859 -22.506  -1.785  1.00  0.00    +0.117 A 
ATOM     15  N   UNL     1      16.764 -23.074  -0.970  1.00  0.00    -0.221 NA
ATOM     16  C   UNL     1      15.952 -18.946  -0.698  1.00  0.00    +0.067 C 
ENDBRANCH   7  10
ENDBRANCH   1   6
BRANCH   5  17
ATOM     17  N   UNL     1      19.004 -22.354   3.469  1.00  0.00    -0.313 N 
ATOM     18  C   UNL     1      18.000 -22.739   4.331  1.00  0.00    +0.256 C 
ATOM     19  O   UNL     1      17.836 -23.833   4.857  1.00  0.00    -0.269 OA
ATOM     20  H   UNL     1      18.961 -21.421   3.058  1.00  0.00    +0.171 HD
BRANCH  18  21
ATOM     21  C   UNL     1      17.008 -21.638   4.576  1.00  0.00    +0.045 C 
ATOM     22  C   UNL     1      16.428 -21.389   5.901  1.00  0.00    +0.032 C 
ATOM     23  C   UNL     1      16.637 -20.902   3.504  1.00  0.00    +0.063 C 
ATOM     24  C   UNL     1      15.538 -20.391   6.049  1.00  0.00    +0.095 C 
ATOM     25  C   UNL     1      15.701 -19.844   3.668  1.00  0.00    +0.161 A 
ATOM     26  N   UNL     1      15.190 -19.630   4.938  1.00  0.00    -0.289 N 
ATOM     27  N   UNL     1      15.182 -18.966   2.837  1.00  0.00    -0.131 NA
ATOM     28  C   UNL     1      14.334 -18.576   4.804  1.00  0.00    +0.230 A 
ATOM     29  N   UNL     1      14.319 -18.164   3.556  1.00  0.00    -0.138 NA
ENDBRANCH  18  21
ENDBRANCH   5  17
TORSDOF 4
ENDMDL
MODEL 8
REMARK VINA RESULT:    -8.086      3.199      6.217
REMARK INTER + INTRA:         -10.144
REMARK INTER:                  -9.473
REMARK INTRA:                  -0.670
REMARK UNBOUND:                -0.166
REMARK SMILES Cc1ccnc(NC(=O)c2ccsc2NC(=O)c2ccn3cnnc3c2)n1
REMARK SMILES IDX 10 1 11 2 12 3 13 4 14 5 8 6 7 7 9 8 6 10 2 11 3 12 27 13
REMARK SMILES IDX 4 14 5 15 1 16 15 17 16 18 17 19 18 21 19 22 26 23 20 24
REMARK SMILES IDX 25 25 21 26 24 27 22 28 23 29
REMARK H PARENT 7 9 15 20
ROOT
ATOM      1  C   UNL     1      17.479 -21.766   3.370  1.00  0.00    +0.075 A 
ATOM      2  C   UNL     1      17.444 -22.346   4.690  1.00  0.00    +0.028 A 
ATOM      3  C   UNL     1      18.081 -23.566   4.753  1.00  0.00    +0.068 A 
ATOM      4  S   UNL     1      18.714 -24.027   3.242  1.00  0.00    -0.126 S 
ATOM      5  C   UNL     1      18.154 -22.612   2.495  1.00  0.00    +0.108 A 
ENDROOT
BRANCH   1   6
ATOM      6  C   UNL     1      16.901 -20.482   2.921  1.00  0.00    +0.261 C 
ATOM      7  N   UNL     1      15.742 -20.130   3.557  1.00  0.00    -0.290 N 
ATOM      8  O   UNL     1      17.472 -19.829   2.049  1.00  0.00    -0.269 OA
ATOM      9  H   UNL     1      15.353 -20.690   4.294  1.00  0.00    +0.173 HD
BRANCH   7  10
ATOM     10  C   UNL     1      14.996 -18.988   3.321  1.00  0.00    +0.229 A 
ATOM     11  C   UNL     1      13.532 -17.469   4.237  1.00  0.00    +0.043 A 
ATOM     12  C   UNL     1      13.476 -16.770   3.051  1.00  0.00    +0.044 A 
ATOM     13  N   UNL     1      14.287 -18.579   4.385  1.00  0.00    -0.218 NA
ATOM     14  C   UNL     1      14.236 -17.273   2.024  1.00  0.00    +0.117 A 
ATOM     15  N   UNL     1      14.998 -18.374   2.135  1.00  0.00    -0.221 NA
ATOM     16  C   UNL     1      12.741 -17.009   5.424  1.00  0.00    +0.067 C 
ENDBRANCH   7  10
ENDBRANCH   1   6
BRANCH   5  17
ATOM     17  N   UNL     1      18.365 -22.369   1.144  1.00  0.00    -0.313 N 
ATOM     18  C   UNL     1      17.558 -22.722   0.084  1.00  0.00    +0.256 C 
ATOM     19  O   UNL     1      16.517 -23.367   0.111  1.00  0.00    -0.269 OA
ATOM     20  H   UNL     1      19.243 -21.888   0.947  1.00  0.00    +0.171 HD
BRANCH  18  21
ATOM     21  C   UNL     1      18.110 -22.253  -1.232  1.00  0.00    +0.045 C 
ATOM     22  C   UNL     1      17.512 -21.139  -1.978  1.00  0.00    +0.032 C 
ATOM     23  C   UNL     1      19.169 -22.933  -1.726  1.00  0.00    +0.063 C 
ATOM     24  C   UNL     1      18.051 -20.775  -3.155  1.00  0.00    +0.095 C 
ATOM     25  C   UNL     1      19.740 -22.539  -2.967  1.00  0.00    +0.161 A 
ATOM     26  N   UNL     1      19.156 -21.472  -3.632  1.00  0.00    -0.289 N 
ATOM     27  N   UNL     1      20.760 -22.982  -3.669  1.00  0.00    -0.131 NA
ATOM     28  C   UNL     1      19.892 -21.317  -4.771  1.00  0.00    +0.230 A 
ATOM     29  N   UNL     1      20.857 -22.210  -4.809  1.00  0.00    -0.138 NA
ENDBRANCH  18  21
ENDBRANCH   5  17
TORSDOF 4
ENDMDL
MODEL 9
REMARK VINA RESULT:    -7.962      3.812      6.656
REMARK INTER + INTRA:          -9.990
REMARK INTER:                  -8.894
REMARK INTRA:                  -1.096
REMARK UNBOUND:                -0.166
REMARK SMILES Cc1ccnc(NC(=O)c2ccsc2NC(=O)c2ccn3cnnc3c2)n1
REMARK SMILES IDX 10 1 11 2 12 3 13 4 14 5 8 6 7 7 9 8 6 10 2 11 3 12 27 13
REMARK SMILES IDX 4 14 5 15 1 16 15 17 16 18 17 19 18 21 19 22 26 23 20 24
REMARK SMILES IDX 25 25 21 26 24 27 22 28 23 29
REMARK H PARENT 7 9 15 20
ROOT
ATOM      1  C   UNL     1      17.569 -23.280   1.689  1.00  0.00    +0.075 A 
ATOM      2  C   UNL     1      16.483 -23.926   0.993  1.00  0.00    +0.028 A 
ATOM      3  C   UNL     1      16.896 -25.009   0.248  1.00  0.00    +0.068 A 
ATOM      4  S   UNL     1      18.575 -25.255   0.370  1.00  0.00    -0.126 S 
ATOM      5  C   UNL     1      18.768 -23.932   1.413  1.00  0.00    +0.108 A 
ENDROOT
BRANCH   1   6
ATOM      6  C   UNL     1      17.514 -22.095   2.570  1.00  0.00    +0.261 C 
ATOM      7  N   UNL     1      16.516 -22.132   3.506  1.00  0.00    -0.290 N 
ATOM      8  O   UNL     1      18.334 -21.191   2.426  1.00  0.00    -0.269 OA
ATOM      9  H   UNL     1      15.907 -22.925   3.598  1.00  0.00    +0.173 HD
BRANCH   7  10
ATOM     10  C   UNL     1      16.240 -21.151   4.443  1.00  0.00    +0.229 A 
ATOM     11  C   UNL     1      15.056 -19.225   4.865  1.00  0.00    +0.043 A 
ATOM     12  C   UNL     1      15.581 -19.150   6.136  1.00  0.00    +0.044 A 
ATOM     13  N   UNL     1      15.377 -20.219   4.008  1.00  0.00    -0.218 NA
ATOM     14  C   UNL     1      16.456 -20.151   6.481  1.00  0.00    +0.117 A 
ATOM     15  N   UNL     1      16.799 -21.154   5.655  1.00  0.00    -0.221 NA
ATOM     16  C   UNL     1      14.090 -18.184   4.383  1.00  0.00    +0.067 C 
ENDBRANCH   7  10
ENDBRANCH   1   6
BRANCH   5  17
ATOM     17  N   UNL     1      20.013 -23.571   1.909  1.00  0.00    -0.313 N 
ATOM     18  C   UNL     1      20.616 -23.996   3.073  1.00  0.00    +0.256 C 
ATOM     19  O   UNL     1      20.157 -24.739   3.933  1.00  0.00    -0.269 OA
ATOM     20  H   UNL     1      20.504 -22.892   1.328  1.00  0.00    +0.171 HD
BRANCH  18  21
ATOM     21  C   UNL     1      21.985 -23.405   3.253  1.00  0.00    +0.045 C 
ATOM     22  C   UNL     1      22.572 -22.482   2.274  1.00  0.00    +0.032 C 
ATOM     23  C   UNL     1      22.678 -23.794   4.346  1.00  0.00    +0.063 C 
ATOM     24  C   UNL     1      23.808 -21.996   2.492  1.00  0.00    +0.095 C 
ATOM     25  C   UNL     1      23.981 -23.271   4.576  1.00  0.00    +0.161 A 
ATOM     26  N   UNL     1      24.492 -22.390   3.637  1.00  0.00    -0.289 N 
ATOM     27  N   UNL     1      24.862 -23.441   5.537  1.00  0.00    -0.131 NA
ATOM     28  C   UNL     1      25.732 -22.055   4.102  1.00  0.00    +0.230 A 
ATOM     29  N   UNL     1      25.968 -22.673   5.238  1.00  0.00    -0.138 NA
ENDBRANCH  18  21
ENDBRANCH   5  17
TORSDOF 4
ENDMDL
