MODEL 1
REMARK VINA RESULT:    -9.155      0.000      0.000
REMARK INTER + INTRA:         -13.084
REMARK INTER:                 -11.296
REMARK INTRA:                  -1.788
REMARK UNBOUND:                -1.788
REMARK SMILES CC1(c2ccc3c(c2)NC(=O)CO3)NC(=O)N(CC(=O)c2ccc(F)cc2F)C1=O
REMARK SMILES IDX 18 1 17 2 2 3 14 4 29 5 15 6 30 7 16 8 1 9 3 11 4 12 8 13
REMARK SMILES IDX 5 14 7 15 6 16 9 17 13 18 10 19 12 20 11 21 19 23 20 24
REMARK SMILES IDX 21 25 22 26 27 27 23 28 26 29 24 30 28 31 25 32
REMARK H PARENT 14 10 9 22
ROOT
ATOM      1  C   UNL     1      19.480 -23.513   0.233  1.00  0.00    +0.211 C 
ENDROOT
BRANCH   1   2
ATOM      2  N   UNL     1      18.552 -23.407   1.338  1.00  0.00    -0.254 N 
ATOM      3  C   UNL     1      17.380 -22.637   3.254  1.00  0.00    +0.144 C 
ATOM      4  N   UNL     1      16.720 -23.718   2.550  1.00  0.00    -0.319 N 
ATOM      5  C   UNL     1      18.618 -22.473   2.336  1.00  0.00    +0.261 C 
ATOM      6  C   UNL     1      17.401 -24.120   1.431  1.00  0.00    +0.325 C 
ATOM      7  O   UNL     1      19.509 -21.647   2.483  1.00  0.00    -0.271 OA
ATOM      8  O   UNL     1      17.016 -24.997   0.676  1.00  0.00    -0.248 OA
ATOM      9  C   UNL     1      17.820 -23.129   4.635  1.00  0.00    +0.051 C 
ATOM     10  H   UNL     1      15.850 -24.156   2.822  1.00  0.00    +0.166 HD
BRANCH   3  11
ATOM     11  C   UNL     1      16.541 -21.362   3.313  1.00  0.00    -0.011 A 
ATOM     12  C   UNL     1      16.547 -20.466   2.226  1.00  0.00    +0.010 A 
ATOM     13  C   UNL     1      15.739 -21.033   4.424  1.00  0.00    +0.036 A 
ATOM     14  C   UNL     1      15.796 -19.288   2.250  1.00  0.00    +0.049 A 
ATOM     15  C   UNL     1      14.983 -19.856   4.440  1.00  0.00    +0.084 A 
ATOM     16  C   UNL     1      15.010 -18.982   3.355  1.00  0.00    +0.143 A 
ATOM     17  N   UNL     1      14.216 -19.553   5.564  1.00  0.00    -0.320 N 
ATOM     18  O   UNL     1      14.332 -17.798   3.309  1.00  0.00    -0.482 OA
ATOM     19  C   UNL     1      13.421 -18.443   5.614  1.00  0.00    +0.262 C 
ATOM     20  C   UNL     1      13.362 -17.619   4.329  1.00  0.00    +0.329 C 
ATOM     21  O   UNL     1      12.770 -18.170   6.619  1.00  0.00    -0.271 OA
ATOM     22  H   UNL     1      14.225 -20.143   6.386  1.00  0.00    +0.170 HD
ENDBRANCH   3  11
ENDBRANCH   1   2
BRANCH   1  23
ATOM     23  C   UNL     1      19.053 -22.880  -1.090  1.00  0.00    +0.185 C 
ATOM     24  O   UNL     1      19.465 -23.304  -2.170  1.00  0.00    -0.292 OA
BRANCH  23  25
ATOM     25  C   UNL     1      18.156 -21.712  -1.119  1.00  0.00    +0.055 A 
ATOM     26  C   UNL     1      18.697 -20.439  -0.912  1.00  0.00    +0.018 A 
ATOM     27  C   UNL     1      16.799 -21.856  -1.400  1.00  0.00    +0.136 A 
ATOM     28  C   UNL     1      17.862 -19.321  -0.952  1.00  0.00    +0.040 A 
ATOM     29  C   UNL     1      15.963 -20.746  -1.443  1.00  0.00    +0.079 A 
ATOM     30  C   UNL     1      16.504 -19.487  -1.215  1.00  0.00    +0.126 A 
ATOM     31  F   UNL     1      16.277 -23.065  -1.639  1.00  0.00    -0.206 F 
ATOM     32  F   UNL     1      15.705 -18.413  -1.251  1.00  0.00    -0.207 F 
ENDBRANCH  23  25
ENDBRANCH   1  23
TORSDOF 4
ENDMDL
MODEL 2
REMARK VINA RESULT:    -9.084      1.494      2.319
REMARK INTER + INTRA:         -12.996
REMARK INTER:                 -11.397
REMARK INTRA:                  -1.599
REMARK UNBOUND:                -1.788
REMARK SMILES CC1(c2ccc3c(c2)NC(=O)CO3)NC(=O)N(CC(=O)c2ccc(F)cc2F)C1=O
REMARK SMILES IDX 18 1 17 2 2 3 14 4 29 5 15 6 30 7 16 8 1 9 3 11 4 12 8 13
REMARK SMILES IDX 5 14 7 15 6 16 9 17 13 18 10 19 12 20 11 21 19 23 20 24
REMARK SMILES IDX 21 25 22 26 27 27 23 28 26 29 24 30 28 31 25 32
REMARK H PARENT 14 10 9 22
ROOT
ATOM      1  C   UNL     1      19.688 -22.732  -0.383  1.00  0.00    +0.211 C 
ENDROOT
BRANCH   1   2
ATOM      2  N   UNL     1      19.043 -22.980   0.888  1.00  0.00    -0.254 N 
ATOM      3  C   UNL     1      18.191 -22.729   3.090  1.00  0.00    +0.144 C 
ATOM      4  N   UNL     1      17.680 -23.887   2.385  1.00  0.00    -0.319 N 
ATOM      5  C   UNL     1      19.102 -22.152   1.976  1.00  0.00    +0.261 C 
ATOM      6  C   UNL     1      18.163 -23.989   1.106  1.00  0.00    +0.325 C 
ATOM      7  O   UNL     1      19.765 -21.127   2.058  1.00  0.00    -0.271 OA
ATOM      8  O   UNL     1      17.847 -24.872   0.326  1.00  0.00    -0.248 OA
ATOM      9  C   UNL     1      19.047 -23.194   4.271  1.00  0.00    +0.051 C 
ATOM     10  H   UNL     1      17.036 -24.570   2.760  1.00  0.00    +0.166 HD
BRANCH   3  11
ATOM     11  C   UNL     1      17.096 -21.745   3.498  1.00  0.00    -0.011 A 
ATOM     12  C   UNL     1      16.360 -21.963   4.679  1.00  0.00    +0.010 A 
ATOM     13  C   UNL     1      16.784 -20.601   2.738  1.00  0.00    +0.036 A 
ATOM     14  C   UNL     1      15.348 -21.087   5.078  1.00  0.00    +0.049 A 
ATOM     15  C   UNL     1      15.775 -19.721   3.145  1.00  0.00    +0.084 A 
ATOM     16  C   UNL     1      15.056 -19.962   4.314  1.00  0.00    +0.143 A 
ATOM     17  N   UNL     1      15.480 -18.610   2.357  1.00  0.00    -0.320 N 
ATOM     18  O   UNL     1      14.033 -19.174   4.760  1.00  0.00    -0.482 OA
ATOM     19  C   UNL     1      14.540 -17.693   2.733  1.00  0.00    +0.262 C 
ATOM     20  C   UNL     1      13.909 -17.922   4.106  1.00  0.00    +0.329 C 
ATOM     21  O   UNL     1      14.267 -16.731   2.019  1.00  0.00    -0.271 OA
ATOM     22  H   UNL     1      15.949 -18.445   1.477  1.00  0.00    +0.170 HD
ENDBRANCH   3  11
ENDBRANCH   1   2
BRANCH   1  23
ATOM     23  C   UNL     1      19.082 -21.638  -1.261  1.00  0.00    +0.185 C 
ATOM     24  O   UNL     1      19.789 -20.815  -1.845  1.00  0.00    -0.292 OA
BRANCH  23  25
ATOM     25  C   UNL     1      17.623 -21.506  -1.414  1.00  0.00    +0.055 A 
ATOM     26  C   UNL     1      16.923 -22.507  -2.096  1.00  0.00    +0.018 A 
ATOM     27  C   UNL     1      16.936 -20.435  -0.848  1.00  0.00    +0.136 A 
ATOM     28  C   UNL     1      15.537 -22.404  -2.235  1.00  0.00    +0.040 A 
ATOM     29  C   UNL     1      15.556 -20.328  -0.983  1.00  0.00    +0.079 A 
ATOM     30  C   UNL     1      14.869 -21.315  -1.680  1.00  0.00    +0.126 A 
ATOM     31  F   UNL     1      17.590 -19.492  -0.159  1.00  0.00    -0.206 F 
ATOM     32  F   UNL     1      13.541 -21.218  -1.817  1.00  0.00    -0.207 F 
ENDBRANCH  23  25
ENDBRANCH   1  23
TORSDOF 4
ENDMDL
MODEL 3
REMARK VINA RESULT:    -8.920      1.621      2.184
REMARK INTER + INTRA:         -12.794
REMARK INTER:                 -10.953
REMARK INTRA:                  -1.840
REMARK UNBOUND:                -1.788
REMARK SMILES CC1(c2ccc3c(c2)NC(=O)CO3)NC(=O)N(CC(=O)c2ccc(F)cc2F)C1=O
REMARK SMILES IDX 18 1 17 2 2 3 14 4 29 5 15 6 30 7 16 8 1 9 3 11 4 12 8 13
REMARK SMILES IDX 5 14 7 15 6 16 9 17 13 18 10 19 12 20 11 21 19 23 20 24
REMARK SMILES IDX 21 25 22 26 27 27 23 28 26 29 24 30 28 31 25 32
REMARK H PARENT 14 10 9 22
ROOT
ATOM      1  C   UNL     1      18.763 -22.906  -0.873  1.00  0.00    +0.211 C 
ENDROOT
BRANCH   1   2
ATOM      2  N   UNL     1      18.111 -23.345   0.342  1.00  0.00    -0.254 N 
ATOM      3  C   UNL     1      17.576 -23.718   2.625  1.00  0.00    +0.144 C 
ATOM      4  N   UNL     1      16.502 -24.033   1.705  1.00  0.00    -0.319 N 
ATOM      5  C   UNL     1      18.633 -23.230   1.602  1.00  0.00    +0.261 C 
ATOM      6  C   UNL     1      16.827 -23.778   0.398  1.00  0.00    +0.325 C 
ATOM      7  O   UNL     1      19.751 -22.812   1.876  1.00  0.00    -0.271 OA
ATOM      8  O   UNL     1      16.065 -23.947  -0.540  1.00  0.00    -0.248 OA
ATOM      9  C   UNL     1      18.061 -25.006   3.296  1.00  0.00    +0.051 C 
ATOM     10  H   UNL     1      15.596 -24.404   1.959  1.00  0.00    +0.166 HD
BRANCH   3  11
ATOM     11  C   UNL     1      17.204 -22.626   3.626  1.00  0.00    -0.011 A 
ATOM     12  C   UNL     1      17.911 -22.516   4.840  1.00  0.00    +0.010 A 
ATOM     13  C   UNL     1      16.172 -21.698   3.387  1.00  0.00    +0.036 A 
ATOM     14  C   UNL     1      17.593 -21.533   5.781  1.00  0.00    +0.049 A 
ATOM     15  C   UNL     1      15.862 -20.710   4.328  1.00  0.00    +0.084 A 
ATOM     16  C   UNL     1      16.571 -20.626   5.525  1.00  0.00    +0.143 A 
ATOM     17  N   UNL     1      14.821 -19.821   4.067  1.00  0.00    -0.320 N 
ATOM     18  O   UNL     1      16.306 -19.717   6.509  1.00  0.00    -0.482 OA
ATOM     19  C   UNL     1      14.509 -18.807   4.928  1.00  0.00    +0.262 C 
ATOM     20  C   UNL     1      15.432 -18.664   6.137  1.00  0.00    +0.329 C 
ATOM     21  O   UNL     1      13.572 -18.045   4.702  1.00  0.00    -0.271 OA
ATOM     22  H   UNL     1      14.256 -19.898   3.232  1.00  0.00    +0.170 HD
ENDBRANCH   3  11
ENDBRANCH   1   2
BRANCH   1  23
ATOM     23  C   UNL     1      18.618 -21.430  -1.238  1.00  0.00    +0.185 C 
ATOM     24  O   UNL     1      19.343 -20.900  -2.082  1.00  0.00    -0.292 OA
BRANCH  23  25
ATOM     25  C   UNL     1      17.625 -20.574  -0.567  1.00  0.00    +0.055 A 
ATOM     26  C   UNL     1      17.998 -19.892   0.597  1.00  0.00    +0.018 A 
ATOM     27  C   UNL     1      16.350 -20.399  -1.100  1.00  0.00    +0.136 A 
ATOM     28  C   UNL     1      17.072 -19.065   1.235  1.00  0.00    +0.040 A 
ATOM     29  C   UNL     1      15.425 -19.576  -0.468  1.00  0.00    +0.079 A 
ATOM     30  C   UNL     1      15.795 -18.918   0.698  1.00  0.00    +0.126 A 
ATOM     31  F   UNL     1      15.995 -21.016  -2.234  1.00  0.00    -0.206 F 
ATOM     32  F   UNL     1      14.909 -18.126   1.314  1.00  0.00    -0.207 F 
ENDBRANCH  23  25
ENDBRANCH   1  23
TORSDOF 4
ENDMDL
MODEL 4
REMARK VINA RESULT:    -8.820      3.229      8.045
REMARK INTER + INTRA:         -12.670
REMARK INTER:                 -12.280
REMARK INTRA:                  -0.390
REMARK UNBOUND:                -1.788
REMARK SMILES CC1(c2ccc3c(c2)NC(=O)CO3)NC(=O)N(CC(=O)c2ccc(F)cc2F)C1=O
REMARK SMILES IDX 18 1 17 2 2 3 14 4 29 5 15 6 30 7 16 8 1 9 3 11 4 12 8 13
REMARK SMILES IDX 5 14 7 15 6 16 9 17 13 18 10 19 12 20 11 21 19 23 20 24
REMARK SMILES IDX 21 25 22 26 27 27 23 28 26 29 24 30 28 31 25 32
REMARK H PARENT 14 10 9 22
ROOT
ATOM      1  C   UNL     1      16.746 -19.336   2.204  1.00  0.00    +0.211 C 
ENDROOT
BRANCH   1   2
ATOM      2  N   UNL     1      16.819 -20.487   1.330  1.00  0.00    -0.254 N 
ATOM      3  C   UNL     1      17.043 -21.875  -0.584  1.00  0.00    +0.144 C 
ATOM      4  N   UNL     1      17.125 -22.585   0.677  1.00  0.00    -0.319 N 
ATOM      5  C   UNL     1      16.856 -20.437  -0.037  1.00  0.00    +0.261 C 
ATOM      6  C   UNL     1      17.025 -21.756   1.764  1.00  0.00    +0.325 C 
ATOM      7  O   UNL     1      16.757 -19.424  -0.717  1.00  0.00    -0.271 OA
ATOM      8  O   UNL     1      17.094 -22.136   2.920  1.00  0.00    -0.248 OA
ATOM      9  C   UNL     1      15.780 -22.314  -1.329  1.00  0.00    +0.051 C 
ATOM     10  H   UNL     1      17.243 -23.583   0.786  1.00  0.00    +0.166 HD
BRANCH   3  11
ATOM     11  C   UNL     1      18.310 -22.005  -1.427  1.00  0.00    -0.011 A 
ATOM     12  C   UNL     1      19.464 -22.594  -0.874  1.00  0.00    +0.010 A 
ATOM     13  C   UNL     1      18.379 -21.564  -2.763  1.00  0.00    +0.036 A 
ATOM     14  C   UNL     1      20.641 -22.722  -1.616  1.00  0.00    +0.049 A 
ATOM     15  C   UNL     1      19.557 -21.702  -3.504  1.00  0.00    +0.084 A 
ATOM     16  C   UNL     1      20.689 -22.280  -2.934  1.00  0.00    +0.143 A 
ATOM     17  N   UNL     1      19.596 -21.234  -4.817  1.00  0.00    -0.320 N 
ATOM     18  O   UNL     1      21.886 -22.418  -3.577  1.00  0.00    -0.482 OA
ATOM     19  C   UNL     1      20.704 -21.388  -5.602  1.00  0.00    +0.262 C 
ATOM     20  C   UNL     1      21.849 -22.183  -4.975  1.00  0.00    +0.329 C 
ATOM     21  O   UNL     1      20.738 -20.949  -6.749  1.00  0.00    -0.271 OA
ATOM     22  H   UNL     1      18.807 -20.760  -5.234  1.00  0.00    +0.170 HD
ENDBRANCH   3  11
ENDBRANCH   1   2
BRANCH   1  23
ATOM     23  C   UNL     1      15.419 -18.582   2.242  1.00  0.00    +0.185 C 
ATOM     24  O   UNL     1      15.020 -17.931   1.275  1.00  0.00    -0.292 OA
BRANCH  23  25
ATOM     25  C   UNL     1      14.580 -18.578   3.453  1.00  0.00    +0.055 A 
ATOM     26  C   UNL     1      14.599 -19.699   4.291  1.00  0.00    +0.018 A 
ATOM     27  C   UNL     1      13.817 -17.464   3.795  1.00  0.00    +0.136 A 
ATOM     28  C   UNL     1      13.821 -19.703   5.450  1.00  0.00    +0.040 A 
ATOM     29  C   UNL     1      13.043 -17.463   4.949  1.00  0.00    +0.079 A 
ATOM     30  C   UNL     1      13.050 -18.587   5.766  1.00  0.00    +0.126 A 
ATOM     31  F   UNL     1      13.822 -16.371   3.022  1.00  0.00    -0.206 F 
ATOM     32  F   UNL     1      12.304 -18.596   6.877  1.00  0.00    -0.207 F 
ENDBRANCH  23  25
ENDBRANCH   1  23
TORSDOF 4
ENDMDL
MODEL 5
REMARK VINA RESULT:    -8.766      2.839      7.555
REMARK INTER + INTRA:         -12.604
REMARK INTER:                 -12.058
REMARK INTRA:                  -0.546
REMARK UNBOUND:                -1.788
REMARK SMILES CC1(c2ccc3c(c2)NC(=O)CO3)NC(=O)N(CC(=O)c2ccc(F)cc2F)C1=O
REMARK SMILES IDX 18 1 17 2 2 3 14 4 29 5 15 6 30 7 16 8 1 9 3 11 4 12 8 13
REMARK SMILES IDX 5 14 7 15 6 16 9 17 13 18 10 19 12 20 11 21 19 23 20 24
REMARK SMILES IDX 21 25 22 26 27 27 23 28 26 29 24 30 28 31 25 32
REMARK H PARENT 14 10 9 22
ROOT
ATOM      1  C   UNL     1      16.638 -20.686   3.495  1.00  0.00    +0.211 C 
ENDROOT
BRANCH   1   2
ATOM      2  N   UNL     1      16.886 -21.722   2.516  1.00  0.00    -0.254 N 
ATOM      3  C   UNL     1      17.246 -22.878   0.473  1.00  0.00    +0.144 C 
ATOM      4  N   UNL     1      17.586 -23.644   1.656  1.00  0.00    -0.319 N 
ATOM      5  C   UNL     1      16.797 -21.563   1.160  1.00  0.00    +0.261 C 
ATOM      6  C   UNL     1      17.400 -22.942   2.818  1.00  0.00    +0.325 C 
ATOM      7  O   UNL     1      16.422 -20.550   0.584  1.00  0.00    -0.271 OA
ATOM      8  O   UNL     1      17.646 -23.383   3.928  1.00  0.00    -0.248 OA
ATOM      9  C   UNL     1      16.051 -23.532  -0.225  1.00  0.00    +0.051 C 
ATOM     10  H   UNL     1      17.927 -24.595   1.665  1.00  0.00    +0.166 HD
BRANCH   3  11
ATOM     11  C   UNL     1      18.435 -22.657  -0.459  1.00  0.00    -0.011 A 
ATOM     12  C   UNL     1      19.744 -22.898   0.002  1.00  0.00    +0.010 A 
ATOM     13  C   UNL     1      18.283 -22.224  -1.791  1.00  0.00    +0.036 A 
ATOM     14  C   UNL     1      20.854 -22.700  -0.823  1.00  0.00    +0.049 A 
ATOM     15  C   UNL     1      19.397 -22.034  -2.616  1.00  0.00    +0.084 A 
ATOM     16  C   UNL     1      20.683 -22.271  -2.134  1.00  0.00    +0.143 A 
ATOM     17  N   UNL     1      19.211 -21.584  -3.922  1.00  0.00    -0.320 N 
ATOM     18  O   UNL     1      21.822 -22.076  -2.862  1.00  0.00    -0.482 OA
ATOM     19  C   UNL     1      20.258 -21.430  -4.786  1.00  0.00    +0.262 C 
ATOM     20  C   UNL     1      21.621 -21.871  -4.251  1.00  0.00    +0.329 C 
ATOM     21  O   UNL     1      20.087 -21.007  -5.926  1.00  0.00    -0.271 OA
ATOM     22  H   UNL     1      18.293 -21.351  -4.276  1.00  0.00    +0.170 HD
ENDBRANCH   3  11
ENDBRANCH   1   2
BRANCH   1  23
ATOM     23  C   UNL     1      15.318 -20.762   4.260  1.00  0.00    +0.185 C 
ATOM     24  O   UNL     1      14.849 -21.839   4.632  1.00  0.00    -0.292 OA
BRANCH  23  25
ATOM     25  C   UNL     1      14.537 -19.548   4.551  1.00  0.00    +0.055 A 
ATOM     26  C   UNL     1      13.954 -19.407   5.816  1.00  0.00    +0.018 A 
ATOM     27  C   UNL     1      14.417 -18.528   3.611  1.00  0.00    +0.136 A 
ATOM     28  C   UNL     1      13.224 -18.255   6.112  1.00  0.00    +0.040 A 
ATOM     29  C   UNL     1      13.693 -17.378   3.902  1.00  0.00    +0.079 A 
ATOM     30  C   UNL     1      13.099 -17.254   5.152  1.00  0.00    +0.126 A 
ATOM     31  F   UNL     1      15.004 -18.633   2.413  1.00  0.00    -0.206 F 
ATOM     32  F   UNL     1      12.397 -16.151   5.439  1.00  0.00    -0.207 F 
ENDBRANCH  23  25
ENDBRANCH   1  23
TORSDOF 4
ENDMDL
MODEL 6
REMARK VINA RESULT:    -8.472      2.534      4.427
REMARK INTER + INTRA:         -12.241
REMARK INTER:                 -10.940
REMARK INTRA:                  -1.301
REMARK UNBOUND:                -1.788
REMARK SMILES CC1(c2ccc3c(c2)NC(=O)CO3)NC(=O)N(CC(=O)c2ccc(F)cc2F)C1=O
REMARK SMILES IDX 18 1 17 2 2 3 14 4 29 5 15 6 30 7 16 8 1 9 3 11 4 12 8 13
REMARK SMILES IDX 5 14 7 15 6 16 9 17 13 18 10 19 12 20 11 21 19 23 20 24
REMARK SMILES IDX 21 25 22 26 27 27 23 28 26 29 24 30 28 31 25 32
REMARK H PARENT 14 10 9 22
ROOT
ATOM      1  C   UNL     1      17.225 -22.773  -1.003  1.00  0.00    +0.211 C 
ENDROOT
BRANCH   1   2
ATOM      2  N   UNL     1      17.307 -21.453  -0.415  1.00  0.00    -0.254 N 
ATOM      3  C   UNL     1      16.747 -19.331   0.492  1.00  0.00    +0.144 C 
ATOM      4  N   UNL     1      18.117 -19.738   0.736  1.00  0.00    -0.319 N 
ATOM      5  C   UNL     1      16.260 -20.582  -0.284  1.00  0.00    +0.261 C 
ATOM      6  C   UNL     1      18.403 -20.979   0.229  1.00  0.00    +0.325 C 
ATOM      7  O   UNL     1      15.126 -20.759  -0.710  1.00  0.00    -0.271 OA
ATOM      8  O   UNL     1      19.486 -21.527   0.341  1.00  0.00    -0.248 OA
ATOM      9  C   UNL     1      16.738 -18.112  -0.433  1.00  0.00    +0.051 C 
ATOM     10  H   UNL     1      18.816 -19.193   1.221  1.00  0.00    +0.166 HD
BRANCH   3  11
ATOM     11  C   UNL     1      15.951 -19.112   1.777  1.00  0.00    -0.011 A 
ATOM     12  C   UNL     1      16.276 -19.841   2.938  1.00  0.00    +0.010 A 
ATOM     13  C   UNL     1      14.890 -18.189   1.863  1.00  0.00    +0.036 A 
ATOM     14  C   UNL     1      15.564 -19.669   4.128  1.00  0.00    +0.049 A 
ATOM     15  C   UNL     1      14.185 -18.015   3.058  1.00  0.00    +0.084 A 
ATOM     16  C   UNL     1      14.520 -18.753   4.192  1.00  0.00    +0.143 A 
ATOM     17  N   UNL     1      13.127 -17.108   3.101  1.00  0.00    -0.320 N 
ATOM     18  O   UNL     1      13.859 -18.668   5.384  1.00  0.00    -0.482 OA
ATOM     19  C   UNL     1      12.437 -16.862   4.254  1.00  0.00    +0.262 C 
ATOM     20  C   UNL     1      12.964 -17.574   5.500  1.00  0.00    +0.329 C 
ATOM     21  O   UNL     1      11.489 -16.081   4.276  1.00  0.00    -0.271 OA
ATOM     22  H   UNL     1      12.829 -16.603   2.277  1.00  0.00    +0.170 HD
ENDBRANCH   3  11
ENDBRANCH   1   2
BRANCH   1  23
ATOM     23  C   UNL     1      16.900 -23.929  -0.059  1.00  0.00    +0.185 C 
ATOM     24  O   UNL     1      15.915 -24.647  -0.234  1.00  0.00    -0.292 OA
BRANCH  23  25
ATOM     25  C   UNL     1      17.737 -24.206   1.121  1.00  0.00    +0.055 A 
ATOM     26  C   UNL     1      18.955 -24.873   0.943  1.00  0.00    +0.018 A 
ATOM     27  C   UNL     1      17.359 -23.771   2.389  1.00  0.00    +0.136 A 
ATOM     28  C   UNL     1      19.767 -25.129   2.049  1.00  0.00    +0.040 A 
ATOM     29  C   UNL     1      18.165 -24.022   3.493  1.00  0.00    +0.079 A 
ATOM     30  C   UNL     1      19.362 -24.703   3.312  1.00  0.00    +0.126 A 
ATOM     31  F   UNL     1      16.216 -23.097   2.565  1.00  0.00    -0.206 F 
ATOM     32  F   UNL     1      20.143 -24.952   4.371  1.00  0.00    -0.207 F 
ENDBRANCH  23  25
ENDBRANCH   1  23
TORSDOF 4
ENDMDL
MODEL 7
REMARK VINA RESULT:    -8.230      3.000      7.368
REMARK INTER + INTRA:         -11.942
REMARK INTER:                 -10.941
REMARK INTRA:                  -1.002
REMARK UNBOUND:                -1.788
REMARK SMILES CC1(c2ccc3c(c2)NC(=O)CO3)NC(=O)N(CC(=O)c2ccc(F)cc2F)C1=O
REMARK SMILES IDX 18 1 17 2 2 3 14 4 29 5 15 6 30 7 16 8 1 9 3 11 4 12 8 13
REMARK SMILES IDX 5 14 7 15 6 16 9 17 13 18 10 19 12 20 11 21 19 23 20 24
REMARK SMILES IDX 21 25 22 26 27 27 23 28 26 29 24 30 28 31 25 32
REMARK H PARENT 14 10 9 22
ROOT
ATOM      1  C   UNL     1      17.726 -21.763   4.412  1.00  0.00    +0.211 C 
ENDROOT
BRANCH   1   2
ATOM      2  N   UNL     1      17.585 -22.559   3.212  1.00  0.00    -0.254 N 
ATOM      3  C   UNL     1      17.200 -23.240   0.970  1.00  0.00    +0.144 C 
ATOM      4  N   UNL     1      17.858 -24.239   1.788  1.00  0.00    -0.319 N 
ATOM      5  C   UNL     1      17.073 -22.111   2.024  1.00  0.00    +0.261 C 
ATOM      6  C   UNL     1      18.097 -23.807   3.067  1.00  0.00    +0.325 C 
ATOM      7  O   UNL     1      16.592 -21.003   1.827  1.00  0.00    -0.271 OA
ATOM      8  O   UNL     1      18.662 -24.474   3.917  1.00  0.00    -0.248 OA
ATOM      9  C   UNL     1      15.808 -23.744   0.580  1.00  0.00    +0.051 C 
ATOM     10  H   UNL     1      18.128 -25.165   1.486  1.00  0.00    +0.166 HD
BRANCH   3  11
ATOM     11  C   UNL     1      18.036 -22.806  -0.233  1.00  0.00    -0.011 A 
ATOM     12  C   UNL     1      17.417 -22.165  -1.324  1.00  0.00    +0.010 A 
ATOM     13  C   UNL     1      19.428 -23.013  -0.302  1.00  0.00    +0.036 A 
ATOM     14  C   UNL     1      18.151 -21.761  -2.441  1.00  0.00    +0.049 A 
ATOM     15  C   UNL     1      20.160 -22.600  -1.420  1.00  0.00    +0.084 A 
ATOM     16  C   UNL     1      19.525 -21.974  -2.491  1.00  0.00    +0.143 A 
ATOM     17  N   UNL     1      21.533 -22.839  -1.464  1.00  0.00    -0.320 N 
ATOM     18  O   UNL     1      20.160 -21.574  -3.632  1.00  0.00    -0.482 OA
ATOM     19  C   UNL     1      22.304 -22.413  -2.508  1.00  0.00    +0.262 C 
ATOM     20  C   UNL     1      21.577 -21.583  -3.566  1.00  0.00    +0.329 C 
ATOM     21  O   UNL     1      23.508 -22.653  -2.551  1.00  0.00    -0.271 OA
ATOM     22  H   UNL     1      22.006 -23.342  -0.726  1.00  0.00    +0.170 HD
ENDBRANCH   3  11
ENDBRANCH   1   2
BRANCH   1  23
ATOM     23  C   UNL     1      16.569 -21.808   5.408  1.00  0.00    +0.185 C 
ATOM     24  O   UNL     1      16.317 -22.823   6.059  1.00  0.00    -0.292 OA
BRANCH  23  25
ATOM     25  C   UNL     1      15.687 -20.644   5.603  1.00  0.00    +0.055 A 
ATOM     26  C   UNL     1      16.222 -19.478   6.162  1.00  0.00    +0.018 A 
ATOM     27  C   UNL     1      14.356 -20.674   5.193  1.00  0.00    +0.136 A 
ATOM     28  C   UNL     1      15.402 -18.361   6.338  1.00  0.00    +0.040 A 
ATOM     29  C   UNL     1      13.537 -19.565   5.365  1.00  0.00    +0.079 A 
ATOM     30  C   UNL     1      14.068 -18.417   5.941  1.00  0.00    +0.126 A 
ATOM     31  F   UNL     1      13.844 -21.770   4.620  1.00  0.00    -0.206 F 
ATOM     32  F   UNL     1      13.285 -17.346   6.113  1.00  0.00    -0.207 F 
ENDBRANCH  23  25
ENDBRANCH   1  23
TORSDOF 4
ENDMDL
MODEL 8
REMARK VINA RESULT:    -8.178      2.438      3.800
REMARK INTER + INTRA:         -11.878
REMARK INTER:                 -10.648
REMARK INTRA:                  -1.231
REMARK UNBOUND:                -1.788
REMARK SMILES CC1(c2ccc3c(c2)NC(=O)CO3)NC(=O)N(CC(=O)c2ccc(F)cc2F)C1=O
REMARK SMILES IDX 18 1 17 2 2 3 14 4 29 5 15 6 30 7 16 8 1 9 3 11 4 12 8 13
REMARK SMILES IDX 5 14 7 15 6 16 9 17 13 18 10 19 12 20 11 21 19 23 20 24
REMARK SMILES IDX 21 25 22 26 27 27 23 28 26 29 24 30 28 31 25 32
REMARK H PARENT 14 10 9 22
ROOT
ATOM      1  C   UNL     1      18.027 -25.326   2.413  1.00  0.00    +0.211 C 
ENDROOT
BRANCH   1   2
ATOM      2  N   UNL     1      18.078 -23.919   2.747  1.00  0.00    -0.254 N 
ATOM      3  C   UNL     1      17.544 -21.616   2.967  1.00  0.00    +0.144 C 
ATOM      4  N   UNL     1      18.637 -22.055   3.812  1.00  0.00    -0.319 N 
ATOM      5  C   UNL     1      17.207 -22.968   2.289  1.00  0.00    +0.261 C 
ATOM      6  C   UNL     1      18.902 -23.394   3.688  1.00  0.00    +0.325 C 
ATOM      7  O   UNL     1      16.310 -23.154   1.477  1.00  0.00    -0.271 OA
ATOM      8  O   UNL     1      19.763 -23.980   4.323  1.00  0.00    -0.248 OA
ATOM      9  C   UNL     1      18.077 -20.631   1.923  1.00  0.00    +0.051 C 
ATOM     10  H   UNL     1      19.172 -21.468   4.438  1.00  0.00    +0.166 HD
BRANCH   3  11
ATOM     11  C   UNL     1      16.361 -21.064   3.759  1.00  0.00    -0.011 A 
ATOM     12  C   UNL     1      15.757 -21.850   4.759  1.00  0.00    +0.010 A 
ATOM     13  C   UNL     1      15.837 -19.774   3.539  1.00  0.00    +0.036 A 
ATOM     14  C   UNL     1      14.668 -21.378   5.498  1.00  0.00    +0.049 A 
ATOM     15  C   UNL     1      14.752 -19.303   4.286  1.00  0.00    +0.084 A 
ATOM     16  C   UNL     1      14.166 -20.103   5.266  1.00  0.00    +0.143 A 
ATOM     17  N   UNL     1      14.247 -18.030   4.027  1.00  0.00    -0.320 N 
ATOM     18  O   UNL     1      13.084 -19.732   6.011  1.00  0.00    -0.482 OA
ATOM     19  C   UNL     1      13.222 -17.501   4.760  1.00  0.00    +0.262 C 
ATOM     20  C   UNL     1      12.739 -18.358   5.929  1.00  0.00    +0.329 C 
ATOM     21  O   UNL     1      12.765 -16.389   4.507  1.00  0.00    -0.271 OA
ATOM     22  H   UNL     1      14.618 -17.454   3.284  1.00  0.00    +0.170 HD
ENDBRANCH   3  11
ENDBRANCH   1   2
BRANCH   1  23
ATOM     23  C   UNL     1      18.732 -25.757   1.129  1.00  0.00    +0.185 C 
ATOM     24  O   UNL     1      18.448 -26.811   0.559  1.00  0.00    -0.292 OA
BRANCH  23  25
ATOM     25  C   UNL     1      19.808 -24.939   0.542  1.00  0.00    +0.055 A 
ATOM     26  C   UNL     1      21.132 -25.191   0.922  1.00  0.00    +0.018 A 
ATOM     27  C   UNL     1      19.530 -23.966  -0.414  1.00  0.00    +0.136 A 
ATOM     28  C   UNL     1      22.163 -24.435   0.362  1.00  0.00    +0.040 A 
ATOM     29  C   UNL     1      20.554 -23.212  -0.976  1.00  0.00    +0.079 A 
ATOM     30  C   UNL     1      21.864 -23.452  -0.579  1.00  0.00    +0.126 A 
ATOM     31  F   UNL     1      18.273 -23.743  -0.815  1.00  0.00    -0.206 F 
ATOM     32  F   UNL     1      22.855 -22.728  -1.112  1.00  0.00    -0.207 F 
ENDBRANCH  23  25
ENDBRANCH   1  23
TORSDOF 4
ENDMDL
MODEL 9
REMARK VINA RESULT:    -8.169      2.805      3.501
REMARK INTER + INTRA:         -11.867
REMARK INTER:                 -10.977
REMARK INTRA:                  -0.890
REMARK UNBOUND:                -1.788
REMARK SMILES CC1(c2ccc3c(c2)NC(=O)CO3)NC(=O)N(CC(=O)c2ccc(F)cc2F)C1=O
REMARK SMILES IDX 18 1 17 2 2 3 14 4 29 5 15 6 30 7 16 8 1 9 3 11 4 12 8 13
REMARK SMILES IDX 5 14 7 15 6 16 9 17 13 18 10 19 12 20 11 21 19 23 20 24
REMARK SMILES IDX 21 25 22 26 27 27 23 28 26 29 24 30 28 31 25 32
REMARK H PARENT 14 10 9 22
ROOT
ATOM      1  C   UNL     1      18.855 -21.598  -0.763  1.00  0.00    +0.211 C 
ENDROOT
BRANCH   1   2
ATOM      2  N   UNL     1      18.204 -22.145   0.407  1.00  0.00    -0.254 N 
ATOM      3  C   UNL     1      17.543 -22.573   2.647  1.00  0.00    +0.144 C 
ATOM      4  N   UNL     1      16.667 -23.154   1.649  1.00  0.00    -0.319 N 
ATOM      5  C   UNL     1      18.557 -21.879   1.702  1.00  0.00    +0.261 C 
ATOM      6  C   UNL     1      17.054 -22.864   0.367  1.00  0.00    +0.325 C 
ATOM      7  O   UNL     1      19.516 -21.205   2.057  1.00  0.00    -0.271 OA
ATOM      8  O   UNL     1      16.448 -23.229  -0.627  1.00  0.00    -0.248 OA
ATOM      9  C   UNL     1      18.241 -23.695   3.421  1.00  0.00    +0.051 C 
ATOM     10  H   UNL     1      15.850 -23.718   1.838  1.00  0.00    +0.166 HD
BRANCH   3  11
ATOM     11  C   UNL     1      16.834 -21.573   3.557  1.00  0.00    -0.011 A 
ATOM     12  C   UNL     1      16.936 -21.700   4.956  1.00  0.00    +0.010 A 
ATOM     13  C   UNL     1      16.072 -20.500   3.055  1.00  0.00    +0.036 A 
ATOM     14  C   UNL     1      16.294 -20.806   5.817  1.00  0.00    +0.049 A 
ATOM     15  C   UNL     1      15.437 -19.602   3.920  1.00  0.00    +0.084 A 
ATOM     16  C   UNL     1      15.547 -19.753   5.301  1.00  0.00    +0.143 A 
ATOM     17  N   UNL     1      14.674 -18.564   3.387  1.00  0.00    -0.320 N 
ATOM     18  O   UNL     1      14.930 -18.943   6.211  1.00  0.00    -0.482 OA
ATOM     19  C   UNL     1      14.075 -17.630   4.185  1.00  0.00    +0.262 C 
ATOM     20  C   UNL     1      14.375 -17.751   5.679  1.00  0.00    +0.329 C 
ATOM     21  O   UNL     1      13.382 -16.735   3.708  1.00  0.00    -0.271 OA
ATOM     22  H   UNL     1      14.534 -18.468   2.391  1.00  0.00    +0.170 HD
ENDBRANCH   3  11
ENDBRANCH   1   2
BRANCH   1  23
ATOM     23  C   UNL     1      19.752 -22.544  -1.559  1.00  0.00    +0.185 C 
ATOM     24  O   UNL     1      19.974 -23.695  -1.178  1.00  0.00    -0.292 OA
BRANCH  23  25
ATOM     25  C   UNL     1      20.415 -22.102  -2.798  1.00  0.00    +0.055 A 
ATOM     26  C   UNL     1      19.625 -21.756  -3.900  1.00  0.00    +0.018 A 
ATOM     27  C   UNL     1      21.800 -21.978  -2.866  1.00  0.00    +0.136 A 
ATOM     28  C   UNL     1      20.238 -21.320  -5.076  1.00  0.00    +0.040 A 
ATOM     29  C   UNL     1      22.415 -21.543  -4.035  1.00  0.00    +0.079 A 
ATOM     30  C   UNL     1      21.626 -21.221  -5.132  1.00  0.00    +0.126 A 
ATOM     31  F   UNL     1      22.564 -22.268  -1.806  1.00  0.00    -0.206 F 
ATOM     32  F   UNL     1      22.211 -20.805  -6.262  1.00  0.00    -0.207 F 
ENDBRANCH  23  25
ENDBRANCH   1  23
TORSDOF 4
ENDMDL
