MODEL 1
REMARK VINA RESULT:    -8.310      0.000      0.000
REMARK INTER + INTRA:         -12.449
REMARK INTER:                 -10.982
REMARK INTRA:                  -1.467
REMARK UNBOUND:                -1.467
REMARK SMILES Cc1cccc(C(=O)CN2C(=O)NC(C)(c3ccc(S(N)(=O)=O)cc3)C2=O)c1
REMARK SMILES IDX 10 1 11 2 12 3 13 4 14 5 15 6 26 7 27 8 9 10 7 11 8 12 6 13
REMARK SMILES IDX 2 14 3 15 28 16 4 17 5 18 1 19 16 20 17 21 25 22 18 23 24 24
REMARK SMILES IDX 19 25 20 26 22 27 23 28 21 29
REMARK H PARENT 13 9 21 30 21 31
ROOT
ATOM      1  N   UNL     1      18.437 -23.533   1.497  1.00  0.00    -0.254 N 
ATOM      2  C   UNL     1      17.663 -24.445   2.142  1.00  0.00    +0.325 C 
ATOM      3  O   UNL     1      17.084 -25.398   1.648  1.00  0.00    -0.248 OA
ATOM      4  N   UNL     1      17.618 -24.121   3.477  1.00  0.00    -0.319 N 
ATOM      5  C   UNL     1      18.331 -22.894   3.774  1.00  0.00    +0.144 C 
ATOM      6  C   UNL     1      19.541 -23.225   4.655  1.00  0.00    +0.051 C 
ATOM      7  C   UNL     1      18.856 -22.555   2.358  1.00  0.00    +0.261 C 
ATOM      8  O   UNL     1      19.545 -21.586   2.062  1.00  0.00    -0.271 OA
ATOM      9  H   UNL     1      16.993 -24.603   4.109  1.00  0.00    +0.166 HD
ENDROOT
BRANCH   1  10
ATOM     10  C   UNL     1      18.628 -23.498   0.065  1.00  0.00    +0.211 C 
BRANCH  10  11
ATOM     11  C   UNL     1      17.403 -22.870  -0.595  1.00  0.00    +0.182 C 
ATOM     12  O   UNL     1      16.433 -23.534  -0.963  1.00  0.00    -0.292 OA
BRANCH  11  13
ATOM     13  C   UNL     1      17.384 -21.387  -0.786  1.00  0.00    +0.020 A 
ATOM     14  C   UNL     1      16.719 -19.136  -0.132  1.00  0.00    -0.050 A 
ATOM     15  C   UNL     1      17.417 -18.620  -1.229  1.00  0.00    +0.003 A 
ATOM     16  C   UNL     1      16.716 -20.523   0.092  1.00  0.00    +0.015 A 
ATOM     17  C   UNL     1      18.081 -19.475  -2.108  1.00  0.00    +0.001 A 
ATOM     18  C   UNL     1      18.062 -20.852  -1.889  1.00  0.00    +0.012 A 
ATOM     19  C   UNL     1      16.031 -18.210   0.830  1.00  0.00    +0.044 C 
ENDBRANCH  11  13
ENDBRANCH  10  11
ENDBRANCH   1  10
BRANCH   5  20
ATOM     20  C   UNL     1      17.377 -21.824   4.304  1.00  0.00    -0.013 A 
ATOM     21  C   UNL     1      17.321 -21.473   5.665  1.00  0.00    +0.008 A 
ATOM     22  C   UNL     1      16.512 -21.148   3.416  1.00  0.00    +0.008 A 
ATOM     23  C   UNL     1      16.446 -20.481   6.123  1.00  0.00    +0.022 A 
ATOM     24  C   UNL     1      15.634 -20.159   3.865  1.00  0.00    +0.022 A 
ATOM     25  C   UNL     1      15.617 -19.822   5.218  1.00  0.00    +0.082 A 
BRANCH  25  26
ATOM     26  S   UNL     1      14.513 -18.555   5.778  1.00  0.00    +0.238 S 
ATOM     27  O   UNL     1      13.223 -19.151   6.025  1.00  0.00    -0.207 OA
ATOM     28  O   UNL     1      15.200 -17.749   6.762  1.00  0.00    -0.207 OA
BRANCH  26  29
ATOM     29  N   UNL     1      14.391 -17.582   4.409  1.00  0.00    -0.225 NA
ATOM     30  H   UNL     1      14.284 -16.610   4.703  1.00  0.00    +0.137 HD
ATOM     31  H   UNL     1      15.170 -17.699   3.761  1.00  0.00    +0.137 HD
ENDBRANCH  26  29
ENDBRANCH  25  26
ENDBRANCH   5  20
TORSDOF 6
ENDMDL
MODEL 2
REMARK VINA RESULT:    -8.097      1.887      4.465
REMARK INTER + INTRA:         -12.167
REMARK INTER:                 -10.828
REMARK INTRA:                  -1.339
REMARK UNBOUND:                -1.467
REMARK SMILES Cc1cccc(C(=O)CN2C(=O)NC(C)(c3ccc(S(N)(=O)=O)cc3)C2=O)c1
REMARK SMILES IDX 10 1 11 2 12 3 13 4 14 5 15 6 26 7 27 8 9 10 7 11 8 12 6 13
REMARK SMILES IDX 2 14 3 15 28 16 4 17 5 18 1 19 16 20 17 21 25 22 18 23 24 24
REMARK SMILES IDX 19 25 20 26 22 27 23 28 21 29
REMARK H PARENT 13 9 21 30 21 31
ROOT
ATOM      1  N   UNL     1      17.434 -21.721  -0.703  1.00  0.00    -0.254 N 
ATOM      2  C   UNL     1      18.538 -21.305  -0.029  1.00  0.00    +0.325 C 
ATOM      3  O   UNL     1      19.542 -21.954   0.210  1.00  0.00    -0.248 OA
ATOM      4  N   UNL     1      18.347 -20.002   0.367  1.00  0.00    -0.319 N 
ATOM      5  C   UNL     1      17.032 -19.503   0.019  1.00  0.00    +0.144 C 
ATOM      6  C   UNL     1      17.184 -18.386  -1.020  1.00  0.00    +0.051 C 
ATOM      7  C   UNL     1      16.470 -20.749  -0.707  1.00  0.00    +0.261 C 
ATOM      8  O   UNL     1      15.359 -20.844  -1.215  1.00  0.00    -0.271 OA
ATOM      9  H   UNL     1      19.000 -19.547   0.991  1.00  0.00    +0.166 HD
ENDROOT
BRANCH   1  10
ATOM     10  C   UNL     1      17.236 -23.071  -1.181  1.00  0.00    +0.211 C 
BRANCH  10  11
ATOM     11  C   UNL     1      16.527 -23.890  -0.105  1.00  0.00    +0.182 C 
ATOM     12  O   UNL     1      15.413 -24.386  -0.275  1.00  0.00    -0.292 OA
BRANCH  11  13
ATOM     13  C   UNL     1      17.229 -24.105   1.198  1.00  0.00    +0.020 A 
ATOM     14  C   UNL     1      17.611 -23.600   3.551  1.00  0.00    -0.050 A 
ATOM     15  C   UNL     1      18.599 -24.590   3.594  1.00  0.00    +0.003 A 
ATOM     16  C   UNL     1      16.919 -23.369   2.350  1.00  0.00    +0.015 A 
ATOM     17  C   UNL     1      18.913 -25.323   2.450  1.00  0.00    +0.001 A 
ATOM     18  C   UNL     1      18.234 -25.080   1.256  1.00  0.00    +0.012 A 
ATOM     19  C   UNL     1      17.253 -22.835   4.792  1.00  0.00    +0.044 C 
ENDBRANCH  11  13
ENDBRANCH  10  11
ENDBRANCH   1  10
BRANCH   5  20
ATOM     20  C   UNL     1      16.230 -19.159   1.273  1.00  0.00    -0.013 A 
ATOM     21  C   UNL     1      15.276 -18.125   1.297  1.00  0.00    +0.008 A 
ATOM     22  C   UNL     1      16.433 -19.892   2.463  1.00  0.00    +0.008 A 
ATOM     23  C   UNL     1      14.546 -17.838   2.456  1.00  0.00    +0.022 A 
ATOM     24  C   UNL     1      15.710 -19.610   3.625  1.00  0.00    +0.022 A 
ATOM     25  C   UNL     1      14.760 -18.590   3.610  1.00  0.00    +0.082 A 
BRANCH  25  26
ATOM     26  S   UNL     1      13.836 -18.249   5.081  1.00  0.00    +0.238 S 
ATOM     27  O   UNL     1      12.973 -17.121   4.826  1.00  0.00    -0.207 OA
ATOM     28  O   UNL     1      13.345 -19.499   5.617  1.00  0.00    -0.207 OA
BRANCH  26  29
ATOM     29  N   UNL     1      15.050 -17.755   6.138  1.00  0.00    -0.225 NA
ATOM     30  H   UNL     1      15.352 -16.814   5.878  1.00  0.00    +0.137 HD
ATOM     31  H   UNL     1      14.776 -17.807   7.119  1.00  0.00    +0.137 HD
ENDBRANCH  26  29
ENDBRANCH  25  26
ENDBRANCH   5  20
TORSDOF 6
ENDMDL
MODEL 3
REMARK VINA RESULT:    -7.930      1.422      1.987
REMARK INTER + INTRA:         -11.946
REMARK INTER:                 -10.667
REMARK INTRA:                  -1.279
REMARK UNBOUND:                -1.467
REMARK SMILES Cc1cccc(C(=O)CN2C(=O)NC(C)(c3ccc(S(N)(=O)=O)cc3)C2=O)c1
REMARK SMILES IDX 10 1 11 2 12 3 13 4 14 5 15 6 26 7 27 8 9 10 7 11 8 12 6 13
REMARK SMILES IDX 2 14 3 15 28 16 4 17 5 18 1 19 16 20 17 21 25 22 18 23 24 24
REMARK SMILES IDX 19 25 20 26 22 27 23 28 21 29
REMARK H PARENT 13 9 21 30 21 31
ROOT
ATOM      1  N   UNL     1      18.859 -24.007   0.856  1.00  0.00    -0.254 N 
ATOM      2  C   UNL     1      17.817 -24.822   1.164  1.00  0.00    +0.325 C 
ATOM      3  O   UNL     1      17.245 -25.599   0.417  1.00  0.00    -0.248 OA
ATOM      4  N   UNL     1      17.481 -24.631   2.483  1.00  0.00    -0.319 N 
ATOM      5  C   UNL     1      18.272 -23.591   3.111  1.00  0.00    +0.144 C 
ATOM      6  C   UNL     1      19.151 -24.223   4.196  1.00  0.00    +0.051 C 
ATOM      7  C   UNL     1      19.188 -23.214   1.921  1.00  0.00    +0.261 C 
ATOM      8  O   UNL     1      20.068 -22.362   1.936  1.00  0.00    -0.271 OA
ATOM      9  H   UNL     1      16.649 -25.051   2.875  1.00  0.00    +0.166 HD
ENDROOT
BRANCH   1  10
ATOM     10  C   UNL     1      19.414 -23.864  -0.471  1.00  0.00    +0.211 C 
BRANCH  10  11
ATOM     11  C   UNL     1      19.242 -22.422  -0.940  1.00  0.00    +0.182 C 
ATOM     12  O   UNL     1      20.197 -21.693  -1.210  1.00  0.00    -0.292 OA
BRANCH  11  13
ATOM     13  C   UNL     1      17.853 -21.886  -1.087  1.00  0.00    +0.020 A 
ATOM     14  C   UNL     1      16.155 -20.173  -0.746  1.00  0.00    -0.050 A 
ATOM     15  C   UNL     1      15.226 -20.971  -1.422  1.00  0.00    +0.003 A 
ATOM     16  C   UNL     1      17.473 -20.631  -0.591  1.00  0.00    +0.015 A 
ATOM     17  C   UNL     1      15.596 -22.222  -1.915  1.00  0.00    +0.001 A 
ATOM     18  C   UNL     1      16.903 -22.679  -1.746  1.00  0.00    +0.012 A 
ATOM     19  C   UNL     1      15.759 -18.814  -0.244  1.00  0.00    +0.044 C 
ENDBRANCH  11  13
ENDBRANCH  10  11
ENDBRANCH   1  10
BRANCH   5  20
ATOM     20  C   UNL     1      17.388 -22.423   3.549  1.00  0.00    -0.013 A 
ATOM     21  C   UNL     1      17.093 -21.342   2.698  1.00  0.00    +0.008 A 
ATOM     22  C   UNL     1      16.834 -22.407   4.848  1.00  0.00    +0.008 A 
ATOM     23  C   UNL     1      16.271 -20.291   3.120  1.00  0.00    +0.022 A 
ATOM     24  C   UNL     1      16.015 -21.360   5.277  1.00  0.00    +0.022 A 
ATOM     25  C   UNL     1      15.728 -20.313   4.403  1.00  0.00    +0.082 A 
BRANCH  25  26
ATOM     26  S   UNL     1      14.675 -18.997   4.948  1.00  0.00    +0.238 S 
ATOM     27  O   UNL     1      14.321 -18.193   3.804  1.00  0.00    -0.207 OA
ATOM     28  O   UNL     1      13.688 -19.541   5.853  1.00  0.00    -0.207 OA
BRANCH  26  29
ATOM     29  N   UNL     1      15.724 -18.102   5.916  1.00  0.00    -0.225 NA
ATOM     30  H   UNL     1      16.284 -18.744   6.479  1.00  0.00    +0.137 HD
ATOM     31  H   UNL     1      16.307 -17.455   5.386  1.00  0.00    +0.137 HD
ENDBRANCH  26  29
ENDBRANCH  25  26
ENDBRANCH   5  20
TORSDOF 6
ENDMDL
MODEL 4
REMARK VINA RESULT:    -7.865      2.287      3.210
REMARK INTER + INTRA:         -11.861
REMARK INTER:                 -11.130
REMARK INTRA:                  -0.731
REMARK UNBOUND:                -1.467
REMARK SMILES Cc1cccc(C(=O)CN2C(=O)NC(C)(c3ccc(S(N)(=O)=O)cc3)C2=O)c1
REMARK SMILES IDX 10 1 11 2 12 3 13 4 14 5 15 6 26 7 27 8 9 10 7 11 8 12 6 13
REMARK SMILES IDX 2 14 3 15 28 16 4 17 5 18 1 19 16 20 17 21 25 22 18 23 24 24
REMARK SMILES IDX 19 25 20 26 22 27 23 28 21 29
REMARK H PARENT 13 9 21 30 21 31
ROOT
ATOM      1  N   UNL     1      17.718 -22.588   0.482  1.00  0.00    -0.254 N 
ATOM      2  C   UNL     1      16.576 -23.315   0.599  1.00  0.00    +0.325 C 
ATOM      3  O   UNL     1      15.887 -23.754  -0.306  1.00  0.00    -0.248 OA
ATOM      4  N   UNL     1      16.293 -23.481   1.934  1.00  0.00    -0.319 N 
ATOM      5  C   UNL     1      17.234 -22.786   2.791  1.00  0.00    +0.144 C 
ATOM      6  C   UNL     1      18.033 -23.820   3.591  1.00  0.00    +0.051 C 
ATOM      7  C   UNL     1      18.174 -22.196   1.711  1.00  0.00    +0.261 C 
ATOM      8  O   UNL     1      19.166 -21.510   1.922  1.00  0.00    -0.271 OA
ATOM      9  H   UNL     1      15.417 -23.887   2.235  1.00  0.00    +0.166 HD
ENDROOT
BRANCH   1  10
ATOM     10  C   UNL     1      18.264 -22.132  -0.776  1.00  0.00    +0.211 C 
BRANCH  10  11
ATOM     11  C   UNL     1      19.411 -23.049  -1.193  1.00  0.00    +0.182 C 
ATOM     12  O   UNL     1      19.615 -24.141  -0.661  1.00  0.00    -0.292 OA
BRANCH  11  13
ATOM     13  C   UNL     1      20.309 -22.600  -2.301  1.00  0.00    +0.020 A 
ATOM     14  C   UNL     1      20.699 -21.752  -4.552  1.00  0.00    -0.050 A 
ATOM     15  C   UNL     1      22.077 -21.770  -4.311  1.00  0.00    +0.003 A 
ATOM     16  C   UNL     1      19.817 -22.157  -3.537  1.00  0.00    +0.015 A 
ATOM     17  C   UNL     1      22.573 -22.212  -3.085  1.00  0.00    +0.001 A 
ATOM     18  C   UNL     1      21.693 -22.628  -2.085  1.00  0.00    +0.012 A 
ATOM     19  C   UNL     1      20.168 -21.246  -5.862  1.00  0.00    +0.044 C 
ENDBRANCH  11  13
ENDBRANCH  10  11
ENDBRANCH   1  10
BRANCH   5  20
ATOM     20  C   UNL     1      16.533 -21.696   3.600  1.00  0.00    -0.013 A 
ATOM     21  C   UNL     1      16.178 -21.871   4.950  1.00  0.00    +0.008 A 
ATOM     22  C   UNL     1      16.221 -20.458   2.994  1.00  0.00    +0.008 A 
ATOM     23  C   UNL     1      15.546 -20.852   5.672  1.00  0.00    +0.022 A 
ATOM     24  C   UNL     1      15.588 -19.437   3.707  1.00  0.00    +0.022 A 
ATOM     25  C   UNL     1      15.266 -19.637   5.048  1.00  0.00    +0.082 A 
BRANCH  25  26
ATOM     26  S   UNL     1      14.480 -18.332   5.951  1.00  0.00    +0.238 S 
ATOM     27  O   UNL     1      13.138 -18.749   6.280  1.00  0.00    -0.207 OA
ATOM     28  O   UNL     1      15.405 -17.836   6.944  1.00  0.00    -0.207 OA
BRANCH  26  29
ATOM     29  N   UNL     1      14.384 -17.122   4.784  1.00  0.00    -0.225 NA
ATOM     30  H   UNL     1      13.426 -17.076   4.433  1.00  0.00    +0.137 HD
ATOM     31  H   UNL     1      14.709 -16.214   5.117  1.00  0.00    +0.137 HD
ENDBRANCH  26  29
ENDBRANCH  25  26
ENDBRANCH   5  20
TORSDOF 6
ENDMDL
MODEL 5
REMARK VINA RESULT:    -7.852      4.269      8.101
REMARK INTER + INTRA:         -11.843
REMARK INTER:                 -10.991
REMARK INTRA:                  -0.853
REMARK UNBOUND:                -1.467
REMARK SMILES Cc1cccc(C(=O)CN2C(=O)NC(C)(c3ccc(S(N)(=O)=O)cc3)C2=O)c1
REMARK SMILES IDX 10 1 11 2 12 3 13 4 14 5 15 6 26 7 27 8 9 10 7 11 8 12 6 13
REMARK SMILES IDX 2 14 3 15 28 16 4 17 5 18 1 19 16 20 17 21 25 22 18 23 24 24
REMARK SMILES IDX 19 25 20 26 22 27 23 28 21 29
REMARK H PARENT 13 9 21 30 21 31
ROOT
ATOM      1  N   UNL     1      17.436 -20.949   0.685  1.00  0.00    -0.254 N 
ATOM      2  C   UNL     1      17.147 -22.276   0.724  1.00  0.00    +0.325 C 
ATOM      3  O   UNL     1      16.950 -22.957   1.716  1.00  0.00    -0.248 OA
ATOM      4  N   UNL     1      17.117 -22.759  -0.563  1.00  0.00    -0.319 N 
ATOM      5  C   UNL     1      17.466 -21.749  -1.543  1.00  0.00    +0.144 C 
ATOM      6  C   UNL     1      16.238 -21.457  -2.412  1.00  0.00    +0.051 C 
ATOM      7  C   UNL     1      17.674 -20.540  -0.599  1.00  0.00    +0.261 C 
ATOM      8  O   UNL     1      17.983 -19.406  -0.944  1.00  0.00    -0.271 OA
ATOM      9  H   UNL     1      17.042 -23.751  -0.745  1.00  0.00    +0.166 HD
ENDROOT
BRANCH   1  10
ATOM     10  C   UNL     1      17.649 -20.130   1.856  1.00  0.00    +0.211 C 
BRANCH  10  11
ATOM     11  C   UNL     1      16.355 -19.399   2.207  1.00  0.00    +0.182 C 
ATOM     12  O   UNL     1      15.871 -18.525   1.488  1.00  0.00    -0.292 OA
BRANCH  11  13
ATOM     13  C   UNL     1      15.650 -19.777   3.471  1.00  0.00    +0.020 A 
ATOM     14  C   UNL     1      14.040 -19.356   5.251  1.00  0.00    -0.050 A 
ATOM     15  C   UNL     1      14.380 -20.581   5.836  1.00  0.00    +0.003 A 
ATOM     16  C   UNL     1      14.671 -18.964   4.059  1.00  0.00    +0.015 A 
ATOM     17  C   UNL     1      15.354 -21.393   5.257  1.00  0.00    +0.001 A 
ATOM     18  C   UNL     1      15.989 -20.992   4.081  1.00  0.00    +0.012 A 
ATOM     19  C   UNL     1      12.968 -18.499   5.860  1.00  0.00    +0.044 C 
ENDBRANCH  11  13
ENDBRANCH  10  11
ENDBRANCH   1  10
BRANCH   5  20
ATOM     20  C   UNL     1      18.747 -22.128  -2.283  1.00  0.00    -0.013 A 
ATOM     21  C   UNL     1      19.675 -23.048  -1.762  1.00  0.00    +0.008 A 
ATOM     22  C   UNL     1      19.033 -21.549  -3.540  1.00  0.00    +0.008 A 
ATOM     23  C   UNL     1      20.836 -23.387  -2.466  1.00  0.00    +0.022 A 
ATOM     24  C   UNL     1      20.191 -21.880  -4.248  1.00  0.00    +0.022 A 
ATOM     25  C   UNL     1      21.080 -22.808  -3.710  1.00  0.00    +0.082 A 
BRANCH  25  26
ATOM     26  S   UNL     1      22.538 -23.236  -4.621  1.00  0.00    +0.238 S 
ATOM     27  O   UNL     1      22.380 -22.771  -5.978  1.00  0.00    -0.207 OA
ATOM     28  O   UNL     1      23.695 -22.914  -3.817  1.00  0.00    -0.207 OA
BRANCH  26  29
ATOM     29  N   UNL     1      22.452 -24.918  -4.628  1.00  0.00    -0.225 NA
ATOM     30  H   UNL     1      22.506 -25.256  -3.666  1.00  0.00    +0.137 HD
ATOM     31  H   UNL     1      21.628 -25.277  -5.110  1.00  0.00    +0.137 HD
ENDBRANCH  26  29
ENDBRANCH  25  26
ENDBRANCH   5  20
TORSDOF 6
ENDMDL
MODEL 6
REMARK VINA RESULT:    -7.817      1.508      2.099
REMARK INTER + INTRA:         -11.797
REMARK INTER:                 -10.696
REMARK INTRA:                  -1.101
REMARK UNBOUND:                -1.467
REMARK SMILES Cc1cccc(C(=O)CN2C(=O)NC(C)(c3ccc(S(N)(=O)=O)cc3)C2=O)c1
REMARK SMILES IDX 10 1 11 2 12 3 13 4 14 5 15 6 26 7 27 8 9 10 7 11 8 12 6 13
REMARK SMILES IDX 2 14 3 15 28 16 4 17 5 18 1 19 16 20 17 21 25 22 18 23 24 24
REMARK SMILES IDX 19 25 20 26 22 27 23 28 21 29
REMARK H PARENT 13 9 21 30 21 31
ROOT
ATOM      1  N   UNL     1      18.516 -23.862   0.739  1.00  0.00    -0.254 N 
ATOM      2  C   UNL     1      17.421 -24.627   0.986  1.00  0.00    +0.325 C 
ATOM      3  O   UNL     1      16.826 -25.337   0.193  1.00  0.00    -0.248 OA
ATOM      4  N   UNL     1      17.061 -24.470   2.303  1.00  0.00    -0.319 N 
ATOM      5  C   UNL     1      17.893 -23.505   2.995  1.00  0.00    +0.144 C 
ATOM      6  C   UNL     1      18.705 -24.232   4.073  1.00  0.00    +0.051 C 
ATOM      7  C   UNL     1      18.861 -23.133   1.845  1.00  0.00    +0.261 C 
ATOM      8  O   UNL     1      19.788 -22.337   1.918  1.00  0.00    -0.271 OA
ATOM      9  H   UNL     1      16.196 -24.857   2.657  1.00  0.00    +0.166 HD
ENDROOT
BRANCH   1  10
ATOM     10  C   UNL     1      19.114 -23.697  -0.567  1.00  0.00    +0.211 C 
BRANCH  10  11
ATOM     11  C   UNL     1      19.225 -22.209  -0.890  1.00  0.00    +0.182 C 
ATOM     12  O   UNL     1      20.301 -21.660  -1.127  1.00  0.00    -0.292 OA
BRANCH  11  13
ATOM     13  C   UNL     1      17.968 -21.399  -0.930  1.00  0.00    +0.020 A 
ATOM     14  C   UNL     1      15.597 -21.119  -1.413  1.00  0.00    -0.050 A 
ATOM     15  C   UNL     1      15.669 -19.798  -0.958  1.00  0.00    +0.003 A 
ATOM     16  C   UNL     1      16.750 -21.920  -1.386  1.00  0.00    +0.015 A 
ATOM     17  C   UNL     1      16.879 -19.272  -0.506  1.00  0.00    +0.001 A 
ATOM     18  C   UNL     1      18.024 -20.068  -0.496  1.00  0.00    +0.012 A 
ATOM     19  C   UNL     1      14.285 -21.691  -1.869  1.00  0.00    +0.044 C 
ENDBRANCH  11  13
ENDBRANCH  10  11
ENDBRANCH   1  10
BRANCH   5  20
ATOM     20  C   UNL     1      17.067 -22.307   3.460  1.00  0.00    -0.013 A 
ATOM     21  C   UNL     1      16.865 -21.172   2.653  1.00  0.00    +0.008 A 
ATOM     22  C   UNL     1      16.471 -22.316   4.741  1.00  0.00    +0.008 A 
ATOM     23  C   UNL     1      16.094 -20.093   3.098  1.00  0.00    +0.022 A 
ATOM     24  C   UNL     1      15.702 -21.241   5.194  1.00  0.00    +0.022 A 
ATOM     25  C   UNL     1      15.508 -20.140   4.362  1.00  0.00    +0.082 A 
BRANCH  25  26
ATOM     26  S   UNL     1      14.518 -18.788   4.936  1.00  0.00    +0.238 S 
ATOM     27  O   UNL     1      14.194 -17.949   3.809  1.00  0.00    -0.207 OA
ATOM     28  O   UNL     1      13.511 -19.304   5.837  1.00  0.00    -0.207 OA
BRANCH  26  29
ATOM     29  N   UNL     1      15.610 -17.959   5.914  1.00  0.00    -0.225 NA
ATOM     30  H   UNL     1      15.160 -17.744   6.805  1.00  0.00    +0.137 HD
ATOM     31  H   UNL     1      16.491 -18.456   6.044  1.00  0.00    +0.137 HD
ENDBRANCH  26  29
ENDBRANCH  25  26
ENDBRANCH   5  20
TORSDOF 6
ENDMDL
MODEL 7
REMARK VINA RESULT:    -7.774      3.773      7.331
REMARK INTER + INTRA:         -11.740
REMARK INTER:                 -10.833
REMARK INTRA:                  -0.907
REMARK UNBOUND:                -1.467
REMARK SMILES Cc1cccc(C(=O)CN2C(=O)NC(C)(c3ccc(S(N)(=O)=O)cc3)C2=O)c1
REMARK SMILES IDX 10 1 11 2 12 3 13 4 14 5 15 6 26 7 27 8 9 10 7 11 8 12 6 13
REMARK SMILES IDX 2 14 3 15 28 16 4 17 5 18 1 19 16 20 17 21 25 22 18 23 24 24
REMARK SMILES IDX 19 25 20 26 22 27 23 28 21 29
REMARK H PARENT 13 9 21 30 21 31
ROOT
ATOM      1  N   UNL     1      17.412 -21.870   2.405  1.00  0.00    -0.254 N 
ATOM      2  C   UNL     1      18.193 -22.974   2.528  1.00  0.00    +0.325 C 
ATOM      3  O   UNL     1      18.887 -23.282   3.483  1.00  0.00    -0.248 OA
ATOM      4  N   UNL     1      18.093 -23.717   1.376  1.00  0.00    -0.319 N 
ATOM      5  C   UNL     1      17.263 -23.077   0.374  1.00  0.00    +0.144 C 
ATOM      6  C   UNL     1      16.008 -23.929   0.152  1.00  0.00    +0.051 C 
ATOM      7  C   UNL     1      16.842 -21.813   1.162  1.00  0.00    +0.261 C 
ATOM      8  O   UNL     1      16.109 -20.922   0.749  1.00  0.00    -0.271 OA
ATOM      9  H   UNL     1      18.694 -24.514   1.216  1.00  0.00    +0.166 HD
ENDROOT
BRANCH   1  10
ATOM     10  C   UNL     1      17.348 -20.807   3.382  1.00  0.00    +0.211 C 
BRANCH  10  11
ATOM     11  C   UNL     1      16.169 -21.052   4.321  1.00  0.00    +0.182 C 
ATOM     12  O   UNL     1      16.030 -22.100   4.953  1.00  0.00    -0.292 OA
BRANCH  11  13
ATOM     13  C   UNL     1      15.155 -19.965   4.482  1.00  0.00    +0.020 A 
ATOM     14  C   UNL     1      14.011 -17.953   3.721  1.00  0.00    -0.050 A 
ATOM     15  C   UNL     1      13.221 -17.975   4.876  1.00  0.00    +0.003 A 
ATOM     16  C   UNL     1      14.970 -18.959   3.523  1.00  0.00    +0.015 A 
ATOM     17  C   UNL     1      13.402 -18.971   5.835  1.00  0.00    +0.001 A 
ATOM     18  C   UNL     1      14.367 -19.960   5.641  1.00  0.00    +0.012 A 
ATOM     19  C   UNL     1      13.791 -16.897   2.677  1.00  0.00    +0.044 C 
ENDBRANCH  11  13
ENDBRANCH  10  11
ENDBRANCH   1  10
BRANCH   5  20
ATOM     20  C   UNL     1      18.079 -22.733  -0.871  1.00  0.00    -0.013 A 
ATOM     21  C   UNL     1      17.495 -22.178  -2.025  1.00  0.00    +0.008 A 
ATOM     22  C   UNL     1      19.472 -22.968  -0.889  1.00  0.00    +0.008 A 
ATOM     23  C   UNL     1      18.267 -21.861  -3.148  1.00  0.00    +0.022 A 
ATOM     24  C   UNL     1      20.249 -22.657  -2.007  1.00  0.00    +0.022 A 
ATOM     25  C   UNL     1      19.642 -22.092  -3.127  1.00  0.00    +0.082 A 
BRANCH  25  26
ATOM     26  S   UNL     1      20.636 -21.684  -4.535  1.00  0.00    +0.238 S 
ATOM     27  O   UNL     1      21.664 -20.763  -4.116  1.00  0.00    -0.207 OA
ATOM     28  O   UNL     1      20.928 -22.900  -5.260  1.00  0.00    -0.207 OA
BRANCH  26  29
ATOM     29  N   UNL     1      19.536 -20.844  -5.495  1.00  0.00    -0.225 NA
ATOM     30  H   UNL     1      19.080 -21.502  -6.129  1.00  0.00    +0.137 HD
ATOM     31  H   UNL     1      18.858 -20.307  -4.954  1.00  0.00    +0.137 HD
ENDBRANCH  26  29
ENDBRANCH  25  26
ENDBRANCH   5  20
TORSDOF 6
ENDMDL
MODEL 8
REMARK VINA RESULT:    -7.655      3.720      7.378
REMARK INTER + INTRA:         -11.583
REMARK INTER:                 -10.756
REMARK INTRA:                  -0.827
REMARK UNBOUND:                -1.467
REMARK SMILES Cc1cccc(C(=O)CN2C(=O)NC(C)(c3ccc(S(N)(=O)=O)cc3)C2=O)c1
REMARK SMILES IDX 10 1 11 2 12 3 13 4 14 5 15 6 26 7 27 8 9 10 7 11 8 12 6 13
REMARK SMILES IDX 2 14 3 15 28 16 4 17 5 18 1 19 16 20 17 21 25 22 18 23 24 24
REMARK SMILES IDX 19 25 20 26 22 27 23 28 21 29
REMARK H PARENT 13 9 21 30 21 31
ROOT
ATOM      1  N   UNL     1      18.079 -22.811   2.511  1.00  0.00    -0.254 N 
ATOM      2  C   UNL     1      18.578 -24.059   2.313  1.00  0.00    +0.325 C 
ATOM      3  O   UNL     1      19.226 -24.726   3.102  1.00  0.00    -0.248 OA
ATOM      4  N   UNL     1      18.244 -24.471   1.045  1.00  0.00    -0.319 N 
ATOM      5  C   UNL     1      17.541 -23.448   0.295  1.00  0.00    +0.144 C 
ATOM      6  C   UNL     1      16.109 -23.925   0.028  1.00  0.00    +0.051 C 
ATOM      7  C   UNL     1      17.476 -22.341   1.375  1.00  0.00    +0.261 C 
ATOM      8  O   UNL     1      16.959 -21.239   1.242  1.00  0.00    -0.271 OA
ATOM      9  H   UNL     1      18.627 -25.323   0.656  1.00  0.00    +0.166 HD
ENDROOT
BRANCH   1  10
ATOM     10  C   UNL     1      18.321 -22.018   3.695  1.00  0.00    +0.211 C 
BRANCH  10  11
ATOM     11  C   UNL     1      17.303 -22.388   4.770  1.00  0.00    +0.182 C 
ATOM     12  O   UNL     1      17.339 -23.458   5.379  1.00  0.00    -0.292 OA
BRANCH  11  13
ATOM     13  C   UNL     1      16.230 -21.399   5.099  1.00  0.00    +0.020 A 
ATOM     14  C   UNL     1      15.464 -19.268   5.999  1.00  0.00    -0.050 A 
ATOM     15  C   UNL     1      14.149 -19.611   5.667  1.00  0.00    +0.003 A 
ATOM     16  C   UNL     1      16.505 -20.162   5.701  1.00  0.00    +0.015 A 
ATOM     17  C   UNL     1      13.869 -20.840   5.071  1.00  0.00    +0.001 A 
ATOM     18  C   UNL     1      14.905 -21.731   4.791  1.00  0.00    +0.012 A 
ATOM     19  C   UNL     1      15.765 -17.930   6.612  1.00  0.00    +0.044 C 
ENDBRANCH  11  13
ENDBRANCH  10  11
ENDBRANCH   1  10
BRANCH   5  20
ATOM     20  C   UNL     1      18.351 -23.014  -0.925  1.00  0.00    -0.013 A 
ATOM     21  C   UNL     1      19.698 -23.377  -1.104  1.00  0.00    +0.008 A 
ATOM     22  C   UNL     1      17.747 -22.221  -1.926  1.00  0.00    +0.008 A 
ATOM     23  C   UNL     1      20.414 -22.976  -2.237  1.00  0.00    +0.022 A 
ATOM     24  C   UNL     1      18.456 -21.813  -3.059  1.00  0.00    +0.022 A 
ATOM     25  C   UNL     1      19.784 -22.205  -3.213  1.00  0.00    +0.082 A 
BRANCH  25  26
ATOM     26  S   UNL     1      20.672 -21.700  -4.660  1.00  0.00    +0.238 S 
ATOM     27  O   UNL     1      21.273 -22.868  -5.257  1.00  0.00    -0.207 OA
ATOM     28  O   UNL     1      19.847 -20.780  -5.409  1.00  0.00    -0.207 OA
BRANCH  26  29
ATOM     29  N   UNL     1      21.900 -20.760  -3.993  1.00  0.00    -0.225 NA
ATOM     30  H   UNL     1      21.484 -20.065  -3.371  1.00  0.00    +0.137 HD
ATOM     31  H   UNL     1      22.617 -21.310  -3.521  1.00  0.00    +0.137 HD
ENDBRANCH  26  29
ENDBRANCH  25  26
ENDBRANCH   5  20
TORSDOF 6
ENDMDL
MODEL 9
REMARK VINA RESULT:    -7.501      3.108      4.446
REMARK INTER + INTRA:         -11.380
REMARK INTER:                 -10.519
REMARK INTRA:                  -0.861
REMARK UNBOUND:                -1.467
REMARK SMILES Cc1cccc(C(=O)CN2C(=O)NC(C)(c3ccc(S(N)(=O)=O)cc3)C2=O)c1
REMARK SMILES IDX 10 1 11 2 12 3 13 4 14 5 15 6 26 7 27 8 9 10 7 11 8 12 6 13
REMARK SMILES IDX 2 14 3 15 28 16 4 17 5 18 1 19 16 20 17 21 25 22 18 23 24 24
REMARK SMILES IDX 19 25 20 26 22 27 23 28 21 29
REMARK H PARENT 13 9 21 30 21 31
ROOT
ATOM      1  N   UNL     1      18.733 -21.917  -1.017  1.00  0.00    -0.254 N 
ATOM      2  C   UNL     1      17.510 -22.412  -1.342  1.00  0.00    +0.325 C 
ATOM      3  O   UNL     1      16.989 -22.420  -2.445  1.00  0.00    -0.248 OA
ATOM      4  N   UNL     1      16.919 -22.909  -0.206  1.00  0.00    -0.319 N 
ATOM      5  C   UNL     1      17.727 -22.696   0.979  1.00  0.00    +0.144 C 
ATOM      6  C   UNL     1      18.188 -24.055   1.516  1.00  0.00    +0.051 C 
ATOM      7  C   UNL     1      18.951 -22.004   0.331  1.00  0.00    +0.261 C 
ATOM      8  O   UNL     1      19.951 -21.616   0.922  1.00  0.00    -0.271 OA
ATOM      9  H   UNL     1      15.953 -23.210  -0.209  1.00  0.00    +0.166 HD
ENDROOT
BRANCH   1  10
ATOM     10  C   UNL     1      19.599 -21.222  -1.942  1.00  0.00    +0.211 C 
BRANCH  10  11
ATOM     11  C   UNL     1      20.590 -22.211  -2.551  1.00  0.00    +0.182 C 
ATOM     12  O   UNL     1      21.262 -22.984  -1.867  1.00  0.00    -0.292 OA
BRANCH  11  13
ATOM     13  C   UNL     1      20.731 -22.245  -4.040  1.00  0.00    +0.020 A 
ATOM     14  C   UNL     1      21.639 -21.407  -6.140  1.00  0.00    -0.050 A 
ATOM     15  C   UNL     1      20.934 -22.398  -6.830  1.00  0.00    +0.003 A 
ATOM     16  C   UNL     1      21.543 -21.342  -4.740  1.00  0.00    +0.015 A 
ATOM     17  C   UNL     1      20.122 -23.297  -6.140  1.00  0.00    +0.001 A 
ATOM     18  C   UNL     1      20.018 -23.219  -4.751  1.00  0.00    +0.012 A 
ATOM     19  C   UNL     1      22.537 -20.461  -6.884  1.00  0.00    +0.044 C 
ENDBRANCH  11  13
ENDBRANCH  10  11
ENDBRANCH   1  10
BRANCH   5  20
ATOM     20  C   UNL     1      17.009 -21.782   1.971  1.00  0.00    -0.013 A 
ATOM     21  C   UNL     1      16.841 -20.404   1.741  1.00  0.00    +0.008 A 
ATOM     22  C   UNL     1      16.484 -22.316   3.169  1.00  0.00    +0.008 A 
ATOM     23  C   UNL     1      16.169 -19.591   2.661  1.00  0.00    +0.022 A 
ATOM     24  C   UNL     1      15.814 -21.511   4.093  1.00  0.00    +0.022 A 
ATOM     25  C   UNL     1      15.650 -20.153   3.826  1.00  0.00    +0.082 A 
BRANCH  25  26
ATOM     26  S   UNL     1      14.785 -19.141   4.994  1.00  0.00    +0.238 S 
ATOM     27  O   UNL     1      14.059 -18.127   4.269  1.00  0.00    -0.207 OA
ATOM     28  O   UNL     1      14.155 -20.000   5.971  1.00  0.00    -0.207 OA
BRANCH  26  29
ATOM     29  N   UNL     1      16.058 -18.397   5.807  1.00  0.00    -0.225 NA
ATOM     30  H   UNL     1      16.223 -17.478   5.394  1.00  0.00    +0.137 HD
ATOM     31  H   UNL     1      15.913 -18.340   6.815  1.00  0.00    +0.137 HD
ENDBRANCH  26  29
ENDBRANCH  25  26
ENDBRANCH   5  20
TORSDOF 6
ENDMDL
