MODEL 1
REMARK VINA RESULT:    -9.504      0.000      0.000
REMARK INTER + INTRA:         -13.836
REMARK INTER:                 -12.837
REMARK INTRA:                  -0.999
REMARK UNBOUND:                -0.999
REMARK SMILES CCc1nc2cc(Cl)ccn2c1C(=O)NCc1ccc(N2CCN(c3ccc(F)cc3)CC2)cc1
REMARK SMILES IDX 16 1 15 2 13 3 14 4 12 6 3 7 4 8 5 9 11 10 6 11 10 12 7 13
REMARK SMILES IDX 9 14 8 15 2 16 1 17 17 18 18 19 35 20 19 21 34 22 20 23
REMARK SMILES IDX 21 24 22 25 33 26 23 27 32 28 24 29 25 30 26 31 31 32 27 33
REMARK SMILES IDX 30 34 28 35 29 36
REMARK H PARENT 15 5
ROOT
ATOM      1  C   UNL     1      22.072 -23.785  -1.773  1.00  0.00    +0.152 C 
ENDROOT
BRANCH   1   2
ATOM      2  N   UNL     1      22.471 -23.095  -2.978  1.00  0.00    -0.347 N 
ATOM      3  C   UNL     1      22.506 -23.733  -4.197  1.00  0.00    +0.270 C 
ATOM      4  O   UNL     1      22.099 -24.881  -4.347  1.00  0.00    -0.267 OA
ATOM      5  H   UNL     1      23.054 -22.279  -2.862  1.00  0.00    +0.164 HD
BRANCH   3   6
ATOM      6  C   UNL     1      23.100 -22.961  -5.259  1.00  0.00    +0.134 A 
ATOM      7  C   UNL     1      24.428 -22.813  -5.649  1.00  0.00    +0.072 A 
ATOM      8  N   UNL     1      24.535 -21.969  -6.730  1.00  0.00    -0.233 NA
ATOM      9  C   UNL     1      23.313 -21.566  -6.989  1.00  0.00    +0.139 A 
ATOM     10  N   UNL     1      22.390 -22.129  -6.110  1.00  0.00    -0.295 N 
ATOM     11  C   UNL     1      22.821 -20.678  -7.989  1.00  0.00    +0.068 C 
ATOM     12  C   UNL     1      21.021 -21.856  -6.185  1.00  0.00    +0.095 C 
ATOM     13  C   UNL     1      21.504 -20.413  -8.057  1.00  0.00    +0.046 C 
ATOM     14  C   UNL     1      20.560 -21.017  -7.129  1.00  0.00    +0.039 C 
ATOM     15 Cl   UNL     1      20.882 -19.344  -9.256  1.00  0.00    -0.084 Cl
BRANCH   7  16
ATOM     16  C   UNL     1      25.679 -23.374  -5.058  1.00  0.00    +0.055 C 
ATOM     17  C   UNL     1      26.167 -22.581  -3.856  1.00  0.00    +0.011 C 
ENDBRANCH   7  16
ENDBRANCH   3   6
ENDBRANCH   1   2
BRANCH   1  18
ATOM     18  C   UNL     1      20.979 -23.032  -1.064  1.00  0.00    -0.029 A 
ATOM     19  C   UNL     1      20.042 -22.283  -1.777  1.00  0.00    +0.008 A 
ATOM     20  C   UNL     1      20.908 -23.028   0.330  1.00  0.00    +0.008 A 
ATOM     21  C   UNL     1      19.046 -21.561  -1.104  1.00  0.00    +0.026 A 
ATOM     22  C   UNL     1      19.907 -22.303   0.991  1.00  0.00    +0.026 A 
ATOM     23  C   UNL     1      18.947 -21.550   0.296  1.00  0.00    +0.037 A 
BRANCH  23  24
ATOM     24  N   UNL     1      17.962 -20.836   0.956  1.00  0.00    -0.368 N 
ATOM     25  C   UNL     1      17.902 -20.771   2.426  1.00  0.00    +0.138 C 
ATOM     26  C   UNL     1      16.927 -20.085   0.224  1.00  0.00    +0.138 C 
ATOM     27  C   UNL     1      16.466 -20.512   2.941  1.00  0.00    +0.138 C 
ATOM     28  C   UNL     1      16.389 -18.885   1.037  1.00  0.00    +0.138 C 
ATOM     29  N   UNL     1      15.880 -19.291   2.359  1.00  0.00    -0.368 N 
BRANCH  29  30
ATOM     30  C   UNL     1      14.900 -18.569   3.017  1.00  0.00    +0.037 A 
ATOM     31  C   UNL     1      14.526 -18.862   4.342  1.00  0.00    +0.029 A 
ATOM     32  C   UNL     1      14.225 -17.501   2.396  1.00  0.00    +0.029 A 
ATOM     33  C   UNL     1      13.534 -18.134   5.011  1.00  0.00    +0.041 A 
ATOM     34  C   UNL     1      13.233 -16.766   3.057  1.00  0.00    +0.041 A 
ATOM     35  C   UNL     1      12.897 -17.091   4.361  1.00  0.00    +0.123 A 
ATOM     36  F   UNL     1      11.949 -16.392   4.997  1.00  0.00    -0.207 F 
ENDBRANCH  29  30
ENDBRANCH  23  24
ENDBRANCH   1  18
TORSDOF 6
ENDMDL
MODEL 2
REMARK VINA RESULT:    -9.374      0.866      1.272
REMARK INTER + INTRA:         -13.661
REMARK INTER:                 -12.734
REMARK INTRA:                  -0.927
REMARK UNBOUND:                -0.999
REMARK SMILES CCc1nc2cc(Cl)ccn2c1C(=O)NCc1ccc(N2CCN(c3ccc(F)cc3)CC2)cc1
REMARK SMILES IDX 16 1 15 2 13 3 14 4 12 6 3 7 4 8 5 9 11 10 6 11 10 12 7 13
REMARK SMILES IDX 9 14 8 15 2 16 1 17 17 18 18 19 35 20 19 21 34 22 20 23
REMARK SMILES IDX 21 24 22 25 33 26 23 27 32 28 24 29 25 30 26 31 31 32 27 33
REMARK SMILES IDX 30 34 28 35 29 36
REMARK H PARENT 15 5
ROOT
ATOM      1  C   UNL     1      22.318 -23.761  -2.028  1.00  0.00    +0.152 C 
ENDROOT
BRANCH   1   2
ATOM      2  N   UNL     1      22.599 -22.935  -3.179  1.00  0.00    -0.347 N 
ATOM      3  C   UNL     1      22.605 -23.454  -4.454  1.00  0.00    +0.270 C 
ATOM      4  O   UNL     1      22.267 -24.609  -4.693  1.00  0.00    -0.267 OA
ATOM      5  H   UNL     1      23.132 -22.094  -3.016  1.00  0.00    +0.164 HD
BRANCH   3   6
ATOM      6  C   UNL     1      23.083 -22.546  -5.467  1.00  0.00    +0.134 A 
ATOM      7  C   UNL     1      24.377 -22.193  -5.840  1.00  0.00    +0.072 A 
ATOM      8  N   UNL     1      24.363 -21.281  -6.870  1.00  0.00    -0.233 NA
ATOM      9  C   UNL     1      23.096 -21.037  -7.111  1.00  0.00    +0.139 A 
ATOM     10  N   UNL     1      22.262 -21.772  -6.272  1.00  0.00    -0.295 N 
ATOM     11  C   UNL     1      22.484 -20.169  -8.061  1.00  0.00    +0.068 C 
ATOM     12  C   UNL     1      20.868 -21.687  -6.338  1.00  0.00    +0.095 C 
ATOM     13  C   UNL     1      21.142 -20.085  -8.120  1.00  0.00    +0.046 C 
ATOM     14  C   UNL     1      20.294 -20.867  -7.234  1.00  0.00    +0.039 C 
ATOM     15 Cl   UNL     1      20.374 -19.044  -9.259  1.00  0.00    -0.084 Cl
BRANCH   7  16
ATOM     16  C   UNL     1      25.696 -22.609  -5.277  1.00  0.00    +0.055 C 
ATOM     17  C   UNL     1      26.868 -21.927  -5.965  1.00  0.00    +0.011 C 
ENDBRANCH   7  16
ENDBRANCH   3   6
ENDBRANCH   1   2
BRANCH   1  18
ATOM     18  C   UNL     1      21.281 -23.115  -1.149  1.00  0.00    -0.029 A 
ATOM     19  C   UNL     1      21.314 -23.271   0.237  1.00  0.00    +0.008 A 
ATOM     20  C   UNL     1      20.232 -22.383  -1.708  1.00  0.00    +0.008 A 
ATOM     21  C   UNL     1      20.324 -22.690   1.043  1.00  0.00    +0.026 A 
ATOM     22  C   UNL     1      19.249 -21.807  -0.892  1.00  0.00    +0.026 A 
ATOM     23  C   UNL     1      19.266 -21.941   0.506  1.00  0.00    +0.037 A 
BRANCH  23  24
ATOM     24  N   UNL     1      18.291 -21.370   1.305  1.00  0.00    -0.368 N 
ATOM     25  C   UNL     1      18.245 -21.602   2.759  1.00  0.00    +0.138 C 
ATOM     26  C   UNL     1      17.254 -20.483   0.749  1.00  0.00    +0.138 C 
ATOM     27  C   UNL     1      16.815 -21.445   3.330  1.00  0.00    +0.138 C 
ATOM     28  C   UNL     1      16.731 -19.469   1.793  1.00  0.00    +0.138 C 
ATOM     29  N   UNL     1      16.231 -20.131   3.011  1.00  0.00    -0.368 N 
BRANCH  29  30
ATOM     30  C   UNL     1      15.261 -19.551   3.811  1.00  0.00    +0.037 A 
ATOM     31  C   UNL     1      14.834 -20.150   5.011  1.00  0.00    +0.029 A 
ATOM     32  C   UNL     1      14.649 -18.331   3.466  1.00  0.00    +0.029 A 
ATOM     33  C   UNL     1      13.853 -19.567   5.822  1.00  0.00    +0.041 A 
ATOM     34  C   UNL     1      13.668 -17.740   4.272  1.00  0.00    +0.041 A 
ATOM     35  C   UNL     1      13.280 -18.366   5.444  1.00  0.00    +0.123 A 
ATOM     36  F   UNL     1      12.341 -17.805   6.217  1.00  0.00    -0.207 F 
ENDBRANCH  29  30
ENDBRANCH  23  24
ENDBRANCH   1  18
TORSDOF 6
ENDMDL
MODEL 3
REMARK VINA RESULT:    -8.769      7.202      9.524
REMARK INTER + INTRA:         -12.843
REMARK INTER:                 -11.973
REMARK INTRA:                  -0.870
REMARK UNBOUND:                -0.999
REMARK SMILES CCc1nc2cc(Cl)ccn2c1C(=O)NCc1ccc(N2CCN(c3ccc(F)cc3)CC2)cc1
REMARK SMILES IDX 16 1 15 2 13 3 14 4 12 6 3 7 4 8 5 9 11 10 6 11 10 12 7 13
REMARK SMILES IDX 9 14 8 15 2 16 1 17 17 18 18 19 35 20 19 21 34 22 20 23
REMARK SMILES IDX 21 24 22 25 33 26 23 27 32 28 24 29 25 30 26 31 31 32 27 33
REMARK SMILES IDX 30 34 28 35 29 36
REMARK H PARENT 15 5
ROOT
ATOM      1  C   UNL     1      21.734 -25.927   2.828  1.00  0.00    +0.152 C 
ENDROOT
BRANCH   1   2
ATOM      2  N   UNL     1      22.616 -25.998   3.970  1.00  0.00    -0.347 N 
ATOM      3  C   UNL     1      23.888 -26.514   3.867  1.00  0.00    +0.270 C 
ATOM      4  O   UNL     1      24.379 -26.835   2.790  1.00  0.00    -0.267 OA
ATOM      5  H   UNL     1      22.180 -26.010   4.880  1.00  0.00    +0.164 HD
BRANCH   3   6
ATOM      6  C   UNL     1      24.567 -26.685   5.127  1.00  0.00    +0.134 A 
ATOM      7  C   UNL     1      25.333 -25.800   5.880  1.00  0.00    +0.072 A 
ATOM      8  N   UNL     1      25.791 -26.398   7.031  1.00  0.00    -0.233 NA
ATOM      9  C   UNL     1      25.360 -27.637   6.984  1.00  0.00    +0.139 A 
ATOM     10  N   UNL     1      24.614 -27.877   5.832  1.00  0.00    -0.295 N 
ATOM     11  C   UNL     1      25.537 -28.716   7.898  1.00  0.00    +0.068 C 
ATOM     12  C   UNL     1      24.043 -29.123   5.555  1.00  0.00    +0.095 C 
ATOM     13  C   UNL     1      24.989 -29.915   7.628  1.00  0.00    +0.046 C 
ATOM     14  C   UNL     1      24.214 -30.139   6.418  1.00  0.00    +0.039 C 
ATOM     15 Cl   UNL     1      25.187 -31.237   8.715  1.00  0.00    -0.084 Cl
BRANCH   7  16
ATOM     16  C   UNL     1      25.739 -24.390   5.601  1.00  0.00    +0.055 C 
ATOM     17  C   UNL     1      25.603 -23.490   6.820  1.00  0.00    +0.011 C 
ENDBRANCH   7  16
ENDBRANCH   3   6
ENDBRANCH   1   2
BRANCH   1  18
ATOM     18  C   UNL     1      20.696 -24.855   3.023  1.00  0.00    -0.029 A 
ATOM     19  C   UNL     1      20.475 -24.286   4.279  1.00  0.00    +0.008 A 
ATOM     20  C   UNL     1      19.895 -24.438   1.958  1.00  0.00    +0.008 A 
ATOM     21  C   UNL     1      19.484 -23.310   4.455  1.00  0.00    +0.026 A 
ATOM     22  C   UNL     1      18.908 -23.460   2.147  1.00  0.00    +0.026 A 
ATOM     23  C   UNL     1      18.674 -22.867   3.397  1.00  0.00    +0.037 A 
BRANCH  23  24
ATOM     24  N   UNL     1      17.697 -21.903   3.576  1.00  0.00    -0.368 N 
ATOM     25  C   UNL     1      17.139 -21.144   2.444  1.00  0.00    +0.138 C 
ATOM     26  C   UNL     1      17.149 -21.593   4.908  1.00  0.00    +0.138 C 
ATOM     27  C   UNL     1      16.598 -19.760   2.879  1.00  0.00    +0.138 C 
ATOM     28  C   UNL     1      15.703 -21.048   4.833  1.00  0.00    +0.138 C 
ATOM     29  N   UNL     1      15.597 -19.869   3.955  1.00  0.00    -0.368 N 
BRANCH  29  30
ATOM     30  C   UNL     1      14.614 -18.911   4.135  1.00  0.00    +0.037 A 
ATOM     31  C   UNL     1      14.319 -17.956   3.144  1.00  0.00    +0.029 A 
ATOM     32  C   UNL     1      13.856 -18.843   5.319  1.00  0.00    +0.029 A 
ATOM     33  C   UNL     1      13.325 -16.986   3.322  1.00  0.00    +0.041 A 
ATOM     34  C   UNL     1      12.859 -17.877   5.505  1.00  0.00    +0.041 A 
ATOM     35  C   UNL     1      12.604 -16.956   4.502  1.00  0.00    +0.123 A 
ATOM     36  F   UNL     1      11.652 -16.031   4.677  1.00  0.00    -0.207 F 
ENDBRANCH  29  30
ENDBRANCH  23  24
ENDBRANCH   1  18
TORSDOF 6
ENDMDL
MODEL 4
REMARK VINA RESULT:    -8.689      1.613      2.936
REMARK INTER + INTRA:         -12.735
REMARK INTER:                 -11.754
REMARK INTRA:                  -0.982
REMARK UNBOUND:                -0.999
REMARK SMILES CCc1nc2cc(Cl)ccn2c1C(=O)NCc1ccc(N2CCN(c3ccc(F)cc3)CC2)cc1
REMARK SMILES IDX 16 1 15 2 13 3 14 4 12 6 3 7 4 8 5 9 11 10 6 11 10 12 7 13
REMARK SMILES IDX 9 14 8 15 2 16 1 17 17 18 18 19 35 20 19 21 34 22 20 23
REMARK SMILES IDX 21 24 22 25 33 26 23 27 32 28 24 29 25 30 26 31 31 32 27 33
REMARK SMILES IDX 30 34 28 35 29 36
REMARK H PARENT 15 5
ROOT
ATOM      1  C   UNL     1      21.742 -23.998  -2.033  1.00  0.00    +0.152 C 
ENDROOT
BRANCH   1   2
ATOM      2  N   UNL     1      22.020 -23.376  -3.307  1.00  0.00    -0.347 N 
ATOM      3  C   UNL     1      22.523 -24.096  -4.367  1.00  0.00    +0.270 C 
ATOM      4  O   UNL     1      22.657 -25.315  -4.326  1.00  0.00    -0.267 OA
ATOM      5  H   UNL     1      22.186 -22.381  -3.300  1.00  0.00    +0.164 HD
BRANCH   3   6
ATOM      6  C   UNL     1      22.917 -23.296  -5.500  1.00  0.00    +0.134 A 
ATOM      7  C   UNL     1      22.160 -22.565  -6.410  1.00  0.00    +0.072 A 
ATOM      8  N   UNL     1      22.965 -21.947  -7.338  1.00  0.00    -0.233 NA
ATOM      9  C   UNL     1      24.191 -22.311  -7.045  1.00  0.00    +0.139 A 
ATOM     10  N   UNL     1      24.225 -23.152  -5.935  1.00  0.00    -0.295 N 
ATOM     11  C   UNL     1      25.430 -21.987  -7.671  1.00  0.00    +0.068 C 
ATOM     12  C   UNL     1      25.419 -23.672  -5.425  1.00  0.00    +0.095 C 
ATOM     13  C   UNL     1      26.577 -22.491  -7.180  1.00  0.00    +0.046 C 
ATOM     14  C   UNL     1      26.585 -23.365  -6.018  1.00  0.00    +0.039 C 
ATOM     15 Cl   UNL     1      28.089 -22.115  -7.916  1.00  0.00    -0.084 Cl
BRANCH   7  16
ATOM     16  C   UNL     1      20.681 -22.408  -6.535  1.00  0.00    +0.055 C 
ATOM     17  C   UNL     1      20.136 -21.279  -5.673  1.00  0.00    +0.011 C 
ENDBRANCH   7  16
ENDBRANCH   3   6
ENDBRANCH   1   2
BRANCH   1  18
ATOM     18  C   UNL     1      20.752 -23.183  -1.247  1.00  0.00    -0.029 A 
ATOM     19  C   UNL     1      20.713 -23.247   0.147  1.00  0.00    +0.008 A 
ATOM     20  C   UNL     1      19.815 -22.379  -1.899  1.00  0.00    +0.008 A 
ATOM     21  C   UNL     1      19.764 -22.507   0.868  1.00  0.00    +0.026 A 
ATOM     22  C   UNL     1      18.873 -21.643  -1.167  1.00  0.00    +0.026 A 
ATOM     23  C   UNL     1      18.820 -21.683   0.235  1.00  0.00    +0.037 A 
BRANCH  23  24
ATOM     24  N   UNL     1      17.887 -20.954   0.951  1.00  0.00    -0.368 N 
ATOM     25  C   UNL     1      16.864 -20.133   0.282  1.00  0.00    +0.138 C 
ATOM     26  C   UNL     1      17.854 -20.971   2.424  1.00  0.00    +0.138 C 
ATOM     27  C   UNL     1      16.383 -18.960   1.171  1.00  0.00    +0.138 C 
ATOM     28  C   UNL     1      16.439 -20.691   2.981  1.00  0.00    +0.138 C 
ATOM     29  N   UNL     1      15.882 -19.423   2.478  1.00  0.00    -0.368 N 
BRANCH  29  30
ATOM     30  C   UNL     1      14.944 -18.701   3.195  1.00  0.00    +0.037 A 
ATOM     31  C   UNL     1      14.617 -19.026   4.525  1.00  0.00    +0.029 A 
ATOM     32  C   UNL     1      14.266 -17.604   2.631  1.00  0.00    +0.029 A 
ATOM     33  C   UNL     1      13.668 -18.299   5.253  1.00  0.00    +0.041 A 
ATOM     34  C   UNL     1      13.316 -16.870   3.353  1.00  0.00    +0.041 A 
ATOM     35  C   UNL     1      13.026 -17.227   4.659  1.00  0.00    +0.123 A 
ATOM     36  F   UNL     1      12.118 -16.529   5.352  1.00  0.00    -0.207 F 
ENDBRANCH  29  30
ENDBRANCH  23  24
ENDBRANCH   1  18
TORSDOF 6
ENDMDL
MODEL 5
REMARK VINA RESULT:    -8.575      1.539      2.411
REMARK INTER + INTRA:         -12.582
REMARK INTER:                 -11.496
REMARK INTRA:                  -1.086
REMARK UNBOUND:                -0.999
REMARK SMILES CCc1nc2cc(Cl)ccn2c1C(=O)NCc1ccc(N2CCN(c3ccc(F)cc3)CC2)cc1
REMARK SMILES IDX 16 1 15 2 13 3 14 4 12 6 3 7 4 8 5 9 11 10 6 11 10 12 7 13
REMARK SMILES IDX 9 14 8 15 2 16 1 17 17 18 18 19 35 20 19 21 34 22 20 23
REMARK SMILES IDX 21 24 22 25 33 26 23 27 32 28 24 29 25 30 26 31 31 32 27 33
REMARK SMILES IDX 30 34 28 35 29 36
REMARK H PARENT 15 5
ROOT
ATOM      1  C   UNL     1      23.034 -24.949  -3.734  1.00  0.00    +0.152 C 
ENDROOT
BRANCH   1   2
ATOM      2  N   UNL     1      23.087 -24.376  -5.059  1.00  0.00    -0.347 N 
ATOM      3  C   UNL     1      23.950 -23.349  -5.367  1.00  0.00    +0.270 C 
ATOM      4  O   UNL     1      24.792 -22.942  -4.573  1.00  0.00    -0.267 OA
ATOM      5  H   UNL     1      22.262 -24.480  -5.631  1.00  0.00    +0.164 HD
BRANCH   3   6
ATOM      6  C   UNL     1      23.749 -22.770  -6.671  1.00  0.00    +0.134 A 
ATOM      7  C   UNL     1      24.513 -22.846  -7.832  1.00  0.00    +0.072 A 
ATOM      8  N   UNL     1      23.932 -22.129  -8.853  1.00  0.00    -0.233 NA
ATOM      9  C   UNL     1      22.855 -21.584  -8.338  1.00  0.00    +0.139 A 
ATOM     10  N   UNL     1      22.697 -21.929  -6.997  1.00  0.00    -0.295 N 
ATOM     11  C   UNL     1      21.876 -20.732  -8.924  1.00  0.00    +0.068 C 
ATOM     12  C   UNL     1      21.621 -21.474  -6.228  1.00  0.00    +0.095 C 
ATOM     13  C   UNL     1      20.843 -20.292  -8.182  1.00  0.00    +0.046 C 
ATOM     14  C   UNL     1      20.699 -20.669  -6.785  1.00  0.00    +0.039 C 
ATOM     15 Cl   UNL     1      19.643 -19.262  -8.866  1.00  0.00    -0.084 Cl
BRANCH   7  16
ATOM     16  C   UNL     1      25.819 -23.520  -8.090  1.00  0.00    +0.055 C 
ATOM     17  C   UNL     1      26.988 -22.547  -8.107  1.00  0.00    +0.011 C 
ENDBRANCH   7  16
ENDBRANCH   3   6
ENDBRANCH   1   2
BRANCH   1  18
ATOM     18  C   UNL     1      22.032 -24.221  -2.878  1.00  0.00    -0.029 A 
ATOM     19  C   UNL     1      20.829 -23.759  -3.414  1.00  0.00    +0.008 A 
ATOM     20  C   UNL     1      22.307 -23.951  -1.536  1.00  0.00    +0.008 A 
ATOM     21  C   UNL     1      19.917 -23.055  -2.614  1.00  0.00    +0.026 A 
ATOM     22  C   UNL     1      21.386 -23.247  -0.747  1.00  0.00    +0.026 A 
ATOM     23  C   UNL     1      20.166 -22.780  -1.260  1.00  0.00    +0.037 A 
BRANCH  23  24
ATOM     24  N   UNL     1      19.262 -22.085  -0.475  1.00  0.00    -0.368 N 
ATOM     25  C   UNL     1      18.154 -21.315  -1.064  1.00  0.00    +0.138 C 
ATOM     26  C   UNL     1      19.349 -22.091   0.995  1.00  0.00    +0.138 C 
ATOM     27  C   UNL     1      17.696 -20.156  -0.146  1.00  0.00    +0.138 C 
ATOM     28  C   UNL     1      17.972 -21.866   1.664  1.00  0.00    +0.138 C 
ATOM     29  N   UNL     1      17.323 -20.627   1.200  1.00  0.00    -0.368 N 
BRANCH  29  30
ATOM     30  C   UNL     1      16.415 -19.940   1.986  1.00  0.00    +0.037 A 
ATOM     31  C   UNL     1      16.204 -20.272   3.338  1.00  0.00    +0.029 A 
ATOM     32  C   UNL     1      15.653 -18.872   1.476  1.00  0.00    +0.029 A 
ATOM     33  C   UNL     1      15.286 -19.580   4.136  1.00  0.00    +0.041 A 
ATOM     34  C   UNL     1      14.733 -18.173   2.267  1.00  0.00    +0.041 A 
ATOM     35  C   UNL     1      14.559 -18.536   3.593  1.00  0.00    +0.123 A 
ATOM     36  F   UNL     1      13.680 -17.871   4.353  1.00  0.00    -0.207 F 
ENDBRANCH  29  30
ENDBRANCH  23  24
ENDBRANCH   1  18
TORSDOF 6
ENDMDL
MODEL 6
REMARK VINA RESULT:    -8.511      6.592      8.113
REMARK INTER + INTRA:         -12.495
REMARK INTER:                 -11.626
REMARK INTRA:                  -0.870
REMARK UNBOUND:                -0.999
REMARK SMILES CCc1nc2cc(Cl)ccn2c1C(=O)NCc1ccc(N2CCN(c3ccc(F)cc3)CC2)cc1
REMARK SMILES IDX 16 1 15 2 13 3 14 4 12 6 3 7 4 8 5 9 11 10 6 11 10 12 7 13
REMARK SMILES IDX 9 14 8 15 2 16 1 17 17 18 18 19 35 20 19 21 34 22 20 23
REMARK SMILES IDX 21 24 22 25 33 26 23 27 32 28 24 29 25 30 26 31 31 32 27 33
REMARK SMILES IDX 30 34 28 35 29 36
REMARK H PARENT 15 5
ROOT
ATOM      1  C   UNL     1      21.618 -25.461   2.949  1.00  0.00    +0.152 C 
ENDROOT
BRANCH   1   2
ATOM      2  N   UNL     1      22.763 -25.078   3.743  1.00  0.00    -0.347 N 
ATOM      3  C   UNL     1      24.046 -25.400   3.362  1.00  0.00    +0.270 C 
ATOM      4  O   UNL     1      24.295 -25.928   2.282  1.00  0.00    -0.267 OA
ATOM      5  H   UNL     1      22.598 -24.905   4.723  1.00  0.00    +0.164 HD
BRANCH   3   6
ATOM      6  C   UNL     1      25.054 -25.112   4.350  1.00  0.00    +0.134 A 
ATOM      7  C   UNL     1      25.687 -25.935   5.277  1.00  0.00    +0.072 A 
ATOM      8  N   UNL     1      26.596 -25.225   6.028  1.00  0.00    -0.233 NA
ATOM      9  C   UNL     1      26.508 -23.983   5.613  1.00  0.00    +0.139 A 
ATOM     10  N   UNL     1      25.568 -23.848   4.594  1.00  0.00    -0.295 N 
ATOM     11  C   UNL     1      27.202 -22.813   6.036  1.00  0.00    +0.068 C 
ATOM     12  C   UNL     1      25.295 -22.619   3.984  1.00  0.00    +0.095 C 
ATOM     13  C   UNL     1      26.936 -21.631   5.451  1.00  0.00    +0.046 C 
ATOM     14  C   UNL     1      25.951 -21.517   4.387  1.00  0.00    +0.039 C 
ATOM     15 Cl   UNL     1      27.760 -20.200   5.942  1.00  0.00    -0.084 Cl
BRANCH   7  16
ATOM     16  C   UNL     1      25.492 -27.383   5.579  1.00  0.00    +0.055 C 
ATOM     17  C   UNL     1      24.966 -27.623   6.986  1.00  0.00    +0.011 C 
ENDBRANCH   7  16
ENDBRANCH   3   6
ENDBRANCH   1   2
BRANCH   1  18
ATOM     18  C   UNL     1      20.502 -24.465   3.109  1.00  0.00    -0.029 A 
ATOM     19  C   UNL     1      20.212 -23.540   2.104  1.00  0.00    +0.008 A 
ATOM     20  C   UNL     1      19.759 -24.413   4.290  1.00  0.00    +0.008 A 
ATOM     21  C   UNL     1      19.190 -22.596   2.278  1.00  0.00    +0.026 A 
ATOM     22  C   UNL     1      18.739 -23.465   4.451  1.00  0.00    +0.026 A 
ATOM     23  C   UNL     1      18.422 -22.532   3.451  1.00  0.00    +0.037 A 
BRANCH  23  24
ATOM     24  N   UNL     1      17.414 -21.599   3.617  1.00  0.00    -0.368 N 
ATOM     25  C   UNL     1      16.776 -21.368   4.925  1.00  0.00    +0.138 C 
ATOM     26  C   UNL     1      16.932 -20.771   2.498  1.00  0.00    +0.138 C 
ATOM     27  C   UNL     1      15.335 -20.822   4.783  1.00  0.00    +0.138 C 
ATOM     28  C   UNL     1      16.354 -19.419   2.976  1.00  0.00    +0.138 C 
ATOM     29  N   UNL     1      15.284 -19.592   3.975  1.00  0.00    -0.368 N 
BRANCH  29  30
ATOM     30  C   UNL     1      14.282 -18.652   4.141  1.00  0.00    +0.037 A 
ATOM     31  C   UNL     1      13.560 -18.542   5.344  1.00  0.00    +0.029 A 
ATOM     32  C   UNL     1      13.931 -17.755   3.114  1.00  0.00    +0.029 A 
ATOM     33  C   UNL     1      12.545 -17.593   5.516  1.00  0.00    +0.041 A 
ATOM     34  C   UNL     1      12.919 -16.801   3.277  1.00  0.00    +0.041 A 
ATOM     35  C   UNL     1      12.234 -16.730   4.479  1.00  0.00    +0.123 A 
ATOM     36  F   UNL     1      11.265 -15.821   4.639  1.00  0.00    -0.207 F 
ENDBRANCH  29  30
ENDBRANCH  23  24
ENDBRANCH   1  18
TORSDOF 6
ENDMDL
MODEL 7
REMARK VINA RESULT:    -8.502      5.154     11.877
REMARK INTER + INTRA:         -12.483
REMARK INTER:                 -11.369
REMARK INTRA:                  -1.114
REMARK UNBOUND:                -0.999
REMARK SMILES CCc1nc2cc(Cl)ccn2c1C(=O)NCc1ccc(N2CCN(c3ccc(F)cc3)CC2)cc1
REMARK SMILES IDX 16 1 15 2 13 3 14 4 12 6 3 7 4 8 5 9 11 10 6 11 10 12 7 13
REMARK SMILES IDX 9 14 8 15 2 16 1 17 17 18 18 19 35 20 19 21 34 22 20 23
REMARK SMILES IDX 21 24 22 25 33 26 23 27 32 28 24 29 25 30 26 31 31 32 27 33
REMARK SMILES IDX 30 34 28 35 29 36
REMARK H PARENT 15 5
ROOT
ATOM      1  C   UNL     1      19.436 -22.899   2.623  1.00  0.00    +0.152 C 
ENDROOT
BRANCH   1   2
ATOM      2  N   UNL     1      18.544 -21.769   2.738  1.00  0.00    -0.347 N 
ATOM      3  C   UNL     1      17.185 -21.901   2.564  1.00  0.00    +0.270 C 
ATOM      4  O   UNL     1      16.648 -22.995   2.413  1.00  0.00    -0.267 OA
ATOM      5  H   UNL     1      18.946 -20.856   2.587  1.00  0.00    +0.164 HD
BRANCH   3   6
ATOM      6  C   UNL     1      16.462 -20.655   2.528  1.00  0.00    +0.134 A 
ATOM      7  C   UNL     1      16.456 -19.630   1.586  1.00  0.00    +0.072 A 
ATOM      8  N   UNL     1      15.604 -18.618   1.964  1.00  0.00    -0.233 NA
ATOM      9  C   UNL     1      15.118 -18.978   3.129  1.00  0.00    +0.139 A 
ATOM     10  N   UNL     1      15.619 -20.212   3.534  1.00  0.00    -0.295 N 
ATOM     11  C   UNL     1      14.198 -18.317   3.994  1.00  0.00    +0.068 C 
ATOM     12  C   UNL     1      15.247 -20.812   4.742  1.00  0.00    +0.095 C 
ATOM     13  C   UNL     1      13.845 -18.894   5.157  1.00  0.00    +0.046 C 
ATOM     14  C   UNL     1      14.381 -20.186   5.556  1.00  0.00    +0.039 C 
ATOM     15 Cl   UNL     1      12.734 -18.118   6.222  1.00  0.00    -0.084 Cl
BRANCH   7  16
ATOM     16  C   UNL     1      17.237 -19.468   0.324  1.00  0.00    +0.055 C 
ATOM     17  C   UNL     1      16.554 -20.110  -0.873  1.00  0.00    +0.011 C 
ENDBRANCH   7  16
ENDBRANCH   3   6
ENDBRANCH   1   2
BRANCH   1  18
ATOM     18  C   UNL     1      20.206 -22.841   1.331  1.00  0.00    -0.029 A 
ATOM     19  C   UNL     1      21.587 -23.042   1.307  1.00  0.00    +0.008 A 
ATOM     20  C   UNL     1      19.560 -22.538   0.132  1.00  0.00    +0.008 A 
ATOM     21  C   UNL     1      22.299 -22.955   0.102  1.00  0.00    +0.026 A 
ATOM     22  C   UNL     1      20.283 -22.455  -1.067  1.00  0.00    +0.026 A 
ATOM     23  C   UNL     1      21.670 -22.662  -1.119  1.00  0.00    +0.037 A 
BRANCH  23  24
ATOM     24  N   UNL     1      22.377 -22.577  -2.305  1.00  0.00    -0.368 N 
ATOM     25  C   UNL     1      21.782 -22.003  -3.524  1.00  0.00    +0.138 C 
ATOM     26  C   UNL     1      23.770 -23.043  -2.412  1.00  0.00    +0.138 C 
ATOM     27  C   UNL     1      22.432 -22.565  -4.812  1.00  0.00    +0.138 C 
ATOM     28  C   UNL     1      24.556 -22.291  -3.512  1.00  0.00    +0.138 C 
ATOM     29  N   UNL     1      23.893 -22.374  -4.826  1.00  0.00    -0.368 N 
BRANCH  29  30
ATOM     30  C   UNL     1      24.604 -22.282  -6.010  1.00  0.00    +0.037 A 
ATOM     31  C   UNL     1      23.994 -22.496  -7.260  1.00  0.00    +0.029 A 
ATOM     32  C   UNL     1      25.976 -21.969  -6.025  1.00  0.00    +0.029 A 
ATOM     33  C   UNL     1      24.710 -22.404  -8.459  1.00  0.00    +0.041 A 
ATOM     34  C   UNL     1      26.701 -21.873  -7.220  1.00  0.00    +0.041 A 
ATOM     35  C   UNL     1      26.058 -22.093  -8.427  1.00  0.00    +0.123 A 
ATOM     36  F   UNL     1      26.747 -22.003  -9.572  1.00  0.00    -0.207 F 
ENDBRANCH  29  30
ENDBRANCH  23  24
ENDBRANCH   1  18
TORSDOF 6
ENDMDL
MODEL 8
REMARK VINA RESULT:    -8.469      6.160      7.325
REMARK INTER + INTRA:         -12.438
REMARK INTER:                 -11.368
REMARK INTRA:                  -1.070
REMARK UNBOUND:                -0.999
REMARK SMILES CCc1nc2cc(Cl)ccn2c1C(=O)NCc1ccc(N2CCN(c3ccc(F)cc3)CC2)cc1
REMARK SMILES IDX 16 1 15 2 13 3 14 4 12 6 3 7 4 8 5 9 11 10 6 11 10 12 7 13
REMARK SMILES IDX 9 14 8 15 2 16 1 17 17 18 18 19 35 20 19 21 34 22 20 23
REMARK SMILES IDX 21 24 22 25 33 26 23 27 32 28 24 29 25 30 26 31 31 32 27 33
REMARK SMILES IDX 30 34 28 35 29 36
REMARK H PARENT 15 5
ROOT
ATOM      1  C   UNL     1      22.006 -25.551   2.370  1.00  0.00    +0.152 C 
ENDROOT
BRANCH   1   2
ATOM      2  N   UNL     1      21.436 -26.840   2.058  1.00  0.00    -0.347 N 
ATOM      3  C   UNL     1      21.167 -27.216   0.761  1.00  0.00    +0.270 C 
ATOM      4  O   UNL     1      21.496 -26.528  -0.201  1.00  0.00    -0.267 OA
ATOM      5  H   UNL     1      20.915 -27.296   2.792  1.00  0.00    +0.164 HD
BRANCH   3   6
ATOM      6  C   UNL     1      20.431 -28.449   0.635  1.00  0.00    +0.134 A 
ATOM      7  C   UNL     1      20.860 -29.743   0.356  1.00  0.00    +0.072 A 
ATOM      8  N   UNL     1      19.800 -30.620   0.334  1.00  0.00    -0.233 NA
ATOM      9  C   UNL     1      18.730 -29.892   0.553  1.00  0.00    +0.139 A 
ATOM     10  N   UNL     1      19.052 -28.548   0.731  1.00  0.00    -0.295 N 
ATOM     11  C   UNL     1      17.357 -30.261   0.630  1.00  0.00    +0.068 C 
ATOM     12  C   UNL     1      18.083 -27.572   0.983  1.00  0.00    +0.095 C 
ATOM     13  C   UNL     1      16.425 -29.320   0.869  1.00  0.00    +0.046 C 
ATOM     14  C   UNL     1      16.788 -27.924   1.054  1.00  0.00    +0.039 C 
ATOM     15 Cl   UNL     1      14.756 -29.738   0.968  1.00  0.00    -0.084 Cl
BRANCH   7  16
ATOM     16  C   UNL     1      22.223 -30.268   0.049  1.00  0.00    +0.055 C 
ATOM     17  C   UNL     1      22.848 -31.000   1.227  1.00  0.00    +0.011 C 
ENDBRANCH   7  16
ENDBRANCH   3   6
ENDBRANCH   1   2
BRANCH   1  18
ATOM     18  C   UNL     1      20.924 -24.539   2.636  1.00  0.00    -0.029 A 
ATOM     19  C   UNL     1      20.213 -24.545   3.837  1.00  0.00    +0.008 A 
ATOM     20  C   UNL     1      20.574 -23.600   1.665  1.00  0.00    +0.008 A 
ATOM     21  C   UNL     1      19.185 -23.617   4.062  1.00  0.00    +0.026 A 
ATOM     22  C   UNL     1      19.546 -22.677   1.902  1.00  0.00    +0.026 A 
ATOM     23  C   UNL     1      18.824 -22.656   3.105  1.00  0.00    +0.037 A 
BRANCH  23  24
ATOM     24  N   UNL     1      17.809 -21.742   3.331  1.00  0.00    -0.368 N 
ATOM     25  C   UNL     1      17.229 -20.940   2.241  1.00  0.00    +0.138 C 
ATOM     26  C   UNL     1      17.241 -21.532   4.674  1.00  0.00    +0.138 C 
ATOM     27  C   UNL     1      16.632 -19.606   2.751  1.00  0.00    +0.138 C 
ATOM     28  C   UNL     1      15.776 -21.039   4.619  1.00  0.00    +0.138 C 
ATOM     29  N   UNL     1      15.630 -19.815   3.811  1.00  0.00    -0.368 N 
BRANCH  29  30
ATOM     30  C   UNL     1      14.609 -18.909   4.037  1.00  0.00    +0.037 A 
ATOM     31  C   UNL     1      13.839 -18.938   5.215  1.00  0.00    +0.029 A 
ATOM     32  C   UNL     1      14.287 -17.908   3.101  1.00  0.00    +0.029 A 
ATOM     33  C   UNL     1      12.805 -18.023   5.447  1.00  0.00    +0.041 A 
ATOM     34  C   UNL     1      13.256 -16.987   3.325  1.00  0.00    +0.041 A 
ATOM     35  C   UNL     1      12.524 -17.055   4.499  1.00  0.00    +0.123 A 
ATOM     36  F   UNL     1      11.537 -16.177   4.717  1.00  0.00    -0.207 F 
ENDBRANCH  29  30
ENDBRANCH  23  24
ENDBRANCH   1  18
TORSDOF 6
ENDMDL
MODEL 9
REMARK VINA RESULT:    -8.275      6.862      9.014
REMARK INTER + INTRA:         -12.176
REMARK INTER:                 -11.276
REMARK INTRA:                  -0.900
REMARK UNBOUND:                -0.999
REMARK SMILES CCc1nc2cc(Cl)ccn2c1C(=O)NCc1ccc(N2CCN(c3ccc(F)cc3)CC2)cc1
REMARK SMILES IDX 16 1 15 2 13 3 14 4 12 6 3 7 4 8 5 9 11 10 6 11 10 12 7 13
REMARK SMILES IDX 9 14 8 15 2 16 1 17 17 18 18 19 35 20 19 21 34 22 20 23
REMARK SMILES IDX 21 24 22 25 33 26 23 27 32 28 24 29 25 30 26 31 31 32 27 33
REMARK SMILES IDX 30 34 28 35 29 36
REMARK H PARENT 15 5
ROOT
ATOM      1  C   UNL     1      21.561 -26.038   2.333  1.00  0.00    +0.152 C 
ENDROOT
BRANCH   1   2
ATOM      2  N   UNL     1      22.377 -26.322   3.490  1.00  0.00    -0.347 N 
ATOM      3  C   UNL     1      23.717 -26.615   3.375  1.00  0.00    +0.270 C 
ATOM      4  O   UNL     1      24.312 -26.542   2.304  1.00  0.00    -0.267 OA
ATOM      5  H   UNL     1      21.897 -26.655   4.314  1.00  0.00    +0.164 HD
BRANCH   3   6
ATOM      6  C   UNL     1      24.341 -27.056   4.597  1.00  0.00    +0.134 A 
ATOM      7  C   UNL     1      24.227 -28.250   5.302  1.00  0.00    +0.072 A 
ATOM      8  N   UNL     1      25.016 -28.236   6.428  1.00  0.00    -0.233 NA
ATOM      9  C   UNL     1      25.580 -27.051   6.453  1.00  0.00    +0.139 A 
ATOM     10  N   UNL     1      25.193 -26.276   5.363  1.00  0.00    -0.295 N 
ATOM     11  C   UNL     1      26.485 -26.474   7.390  1.00  0.00    +0.068 C 
ATOM     12  C   UNL     1      25.662 -24.974   5.165  1.00  0.00    +0.095 C 
ATOM     13  C   UNL     1      26.933 -25.220   7.200  1.00  0.00    +0.046 C 
ATOM     14  C   UNL     1      26.515 -24.432   6.051  1.00  0.00    +0.039 C 
ATOM     15 Cl   UNL     1      28.028 -24.497   8.317  1.00  0.00    -0.084 Cl
BRANCH   7  16
ATOM     16  C   UNL     1      23.380 -29.452   5.042  1.00  0.00    +0.055 C 
ATOM     17  C   UNL     1      23.904 -30.300   3.892  1.00  0.00    +0.011 C 
ENDBRANCH   7  16
ENDBRANCH   3   6
ENDBRANCH   1   2
BRANCH   1  18
ATOM     18  C   UNL     1      20.554 -24.962   2.642  1.00  0.00    -0.029 A 
ATOM     19  C   UNL     1      20.400 -24.473   3.940  1.00  0.00    +0.008 A 
ATOM     20  C   UNL     1      19.717 -24.464   1.642  1.00  0.00    +0.008 A 
ATOM     21  C   UNL     1      19.437 -23.493   4.221  1.00  0.00    +0.026 A 
ATOM     22  C   UNL     1      18.760 -23.483   1.936  1.00  0.00    +0.026 A 
ATOM     23  C   UNL     1      18.592 -22.968   3.231  1.00  0.00    +0.037 A 
BRANCH  23  24
ATOM     24  N   UNL     1      17.643 -22.001   3.514  1.00  0.00    -0.368 N 
ATOM     25  C   UNL     1      17.032 -21.179   2.456  1.00  0.00    +0.138 C 
ATOM     26  C   UNL     1      17.179 -21.750   4.890  1.00  0.00    +0.138 C 
ATOM     27  C   UNL     1      16.541 -19.811   2.989  1.00  0.00    +0.138 C 
ATOM     28  C   UNL     1      15.741 -21.182   4.927  1.00  0.00    +0.138 C 
ATOM     29  N   UNL     1      15.603 -19.959   4.116  1.00  0.00    -0.368 N 
BRANCH  29  30
ATOM     30  C   UNL     1      14.648 -18.998   4.400  1.00  0.00    +0.037 A 
ATOM     31  C   UNL     1      14.261 -18.035   3.450  1.00  0.00    +0.029 A 
ATOM     32  C   UNL     1      14.013 -18.934   5.654  1.00  0.00    +0.029 A 
ATOM     33  C   UNL     1      13.295 -17.061   3.734  1.00  0.00    +0.041 A 
ATOM     34  C   UNL     1      13.045 -17.965   5.947  1.00  0.00    +0.041 A 
ATOM     35  C   UNL     1      12.696 -17.036   4.980  1.00  0.00    +0.123 A 
ATOM     36  F   UNL     1      11.772 -16.107   5.256  1.00  0.00    -0.207 F 
ENDBRANCH  29  30
ENDBRANCH  23  24
ENDBRANCH   1  18
TORSDOF 6
ENDMDL
