MODEL 1
REMARK VINA RESULT:    -8.712      0.000      0.000
REMARK INTER + INTRA:         -13.310
REMARK INTER:                 -11.514
REMARK INTRA:                  -1.797
REMARK UNBOUND:                -1.797
REMARK SMILES CC1(c2ccc(S(N)(=O)=O)cc2)NC(=O)N(CC(=O)c2ccc(F)cc2F)C1=O
REMARK SMILES IDX 1 1 2 2 13 3 14 4 15 5 16 6 28 7 29 8 3 10 4 11 12 12 5 13
REMARK SMILES IDX 11 14 6 15 7 16 9 17 10 18 8 19 17 22 18 23 19 24 20 25
REMARK SMILES IDX 21 26 26 27 22 28 25 29 23 30 27 31 24 32
REMARK H PARENT 13 9 8 20 8 21
ROOT
ATOM      1  C   UNL     1      18.342 -23.871   4.114  1.00  0.00    +0.051 C 
ATOM      2  C   UNL     1      17.579 -23.079   3.049  1.00  0.00    +0.144 C 
ATOM      3  N   UNL     1      16.779 -23.987   2.250  1.00  0.00    -0.319 N 
ATOM      4  C   UNL     1      17.258 -24.127   0.972  1.00  0.00    +0.325 C 
ATOM      5  O   UNL     1      16.818 -24.925   0.162  1.00  0.00    -0.248 OA
ATOM      6  N   UNL     1      18.282 -23.255   0.792  1.00  0.00    -0.254 N 
ATOM      7  C   UNL     1      18.568 -22.600   1.957  1.00  0.00    +0.261 C 
ATOM      8  O   UNL     1      19.478 -21.795   2.115  1.00  0.00    -0.271 OA
ATOM      9  H   UNL     1      16.098 -24.640   2.612  1.00  0.00    +0.166 HD
ENDROOT
BRANCH   2  10
ATOM     10  C   UNL     1      16.764 -21.931   3.646  1.00  0.00    -0.013 A 
ATOM     11  C   UNL     1      16.290 -22.019   4.971  1.00  0.00    +0.008 A 
ATOM     12  C   UNL     1      16.462 -20.766   2.915  1.00  0.00    +0.008 A 
ATOM     13  C   UNL     1      15.543 -20.988   5.545  1.00  0.00    +0.022 A 
ATOM     14  C   UNL     1      15.713 -19.731   3.482  1.00  0.00    +0.022 A 
ATOM     15  C   UNL     1      15.249 -19.852   4.792  1.00  0.00    +0.082 A 
BRANCH  15  16
ATOM     16  S   UNL     1      14.312 -18.530   5.510  1.00  0.00    +0.238 S 
ATOM     17  O   UNL     1      12.962 -18.993   5.738  1.00  0.00    -0.207 OA
ATOM     18  O   UNL     1      15.108 -17.913   6.543  1.00  0.00    -0.207 OA
BRANCH  16  19
ATOM     19  N   UNL     1      14.210 -17.452   4.220  1.00  0.00    -0.225 NA
ATOM     20  H   UNL     1      13.280 -17.405   3.807  1.00  0.00    +0.137 HD
ATOM     21  H   UNL     1      14.537 -16.535   4.532  1.00  0.00    +0.137 HD
ENDBRANCH  16  19
ENDBRANCH  15  16
ENDBRANCH   2  10
BRANCH   6  22
ATOM     22  C   UNL     1      19.086 -23.186  -0.407  1.00  0.00    +0.211 C 
BRANCH  22  23
ATOM     23  C   UNL     1      18.316 -22.404  -1.469  1.00  0.00    +0.185 C 
ATOM     24  O   UNL     1      18.347 -22.701  -2.665  1.00  0.00    -0.292 OA
BRANCH  23  25
ATOM     25  C   UNL     1      17.497 -21.230  -1.052  1.00  0.00    +0.055 A 
ATOM     26  C   UNL     1      18.163 -20.052  -0.674  1.00  0.00    +0.018 A 
ATOM     27  C   UNL     1      16.101 -21.256  -1.012  1.00  0.00    +0.136 A 
ATOM     28  C   UNL     1      17.436 -18.927  -0.276  1.00  0.00    +0.040 A 
ATOM     29  C   UNL     1      15.371 -20.138  -0.616  1.00  0.00    +0.079 A 
ATOM     30  C   UNL     1      16.046 -18.982  -0.252  1.00  0.00    +0.126 A 
ATOM     31  F   UNL     1      15.417 -22.361  -1.343  1.00  0.00    -0.206 F 
ATOM     32  F   UNL     1      15.350 -17.904   0.130  1.00  0.00    -0.207 F 
ENDBRANCH  23  25
ENDBRANCH  22  23
ENDBRANCH   6  22
TORSDOF 6
ENDMDL
MODEL 2
REMARK VINA RESULT:    -8.417      1.132      1.761
REMARK INTER + INTRA:         -12.920
REMARK INTER:                 -11.361
REMARK INTRA:                  -1.559
REMARK UNBOUND:                -1.797
REMARK SMILES CC1(c2ccc(S(N)(=O)=O)cc2)NC(=O)N(CC(=O)c2ccc(F)cc2F)C1=O
REMARK SMILES IDX 1 1 2 2 13 3 14 4 15 5 16 6 28 7 29 8 3 10 4 11 12 12 5 13
REMARK SMILES IDX 11 14 6 15 7 16 9 17 10 18 8 19 17 22 18 23 19 24 20 25
REMARK SMILES IDX 21 26 26 27 22 28 25 29 23 30 27 31 24 32
REMARK H PARENT 13 9 8 20 8 21
ROOT
ATOM      1  C   UNL     1      19.153 -23.231   4.251  1.00  0.00    +0.051 C 
ATOM      2  C   UNL     1      18.249 -22.676   3.147  1.00  0.00    +0.144 C 
ATOM      3  N   UNL     1      17.601 -23.773   2.454  1.00  0.00    -0.319 N 
ATOM      4  C   UNL     1      18.076 -23.945   1.178  1.00  0.00    +0.325 C 
ATOM      5  O   UNL     1      17.763 -24.875   0.454  1.00  0.00    -0.248 OA
ATOM      6  N   UNL     1      18.934 -22.934   0.892  1.00  0.00    -0.254 N 
ATOM      7  C   UNL     1      19.124 -22.138   1.987  1.00  0.00    +0.261 C 
ATOM      8  O   UNL     1      19.887 -21.181   2.046  1.00  0.00    -0.271 OA
ATOM      9  H   UNL     1      17.047 -24.495   2.892  1.00  0.00    +0.166 HD
ENDROOT
BRANCH   2  10
ATOM     10  C   UNL     1      17.261 -21.632   3.669  1.00  0.00    -0.013 A 
ATOM     11  C   UNL     1      16.912 -21.615   5.034  1.00  0.00    +0.008 A 
ATOM     12  C   UNL     1      16.676 -20.666   2.828  1.00  0.00    +0.008 A 
ATOM     13  C   UNL     1      16.012 -20.674   5.543  1.00  0.00    +0.022 A 
ATOM     14  C   UNL     1      15.774 -19.723   3.328  1.00  0.00    +0.022 A 
ATOM     15  C   UNL     1      15.439 -19.739   4.682  1.00  0.00    +0.082 A 
BRANCH  15  16
ATOM     16  S   UNL     1      14.306 -18.531   5.314  1.00  0.00    +0.238 S 
ATOM     17  O   UNL     1      12.999 -19.137   5.419  1.00  0.00    -0.207 OA
ATOM     18  O   UNL     1      14.936 -17.843   6.415  1.00  0.00    -0.207 OA
BRANCH  16  19
ATOM     19  N   UNL     1      14.205 -17.458   4.020  1.00  0.00    -0.225 NA
ATOM     20  H   UNL     1      14.502 -16.513   4.256  1.00  0.00    +0.137 HD
ATOM     21  H   UNL     1      14.736 -17.840   3.235  1.00  0.00    +0.137 HD
ENDBRANCH  16  19
ENDBRANCH  15  16
ENDBRANCH   2  10
BRANCH   6  22
ATOM     22  C   UNL     1      19.694 -22.839  -0.334  1.00  0.00    +0.211 C 
BRANCH  22  23
ATOM     23  C   UNL     1      19.144 -21.681  -1.163  1.00  0.00    +0.185 C 
ATOM     24  O   UNL     1      19.871 -20.833  -1.684  1.00  0.00    -0.292 OA
BRANCH  23  25
ATOM     25  C   UNL     1      17.670 -21.561  -1.351  1.00  0.00    +0.055 A 
ATOM     26  C   UNL     1      17.011 -22.542  -2.110  1.00  0.00    +0.018 A 
ATOM     27  C   UNL     1      16.921 -20.511  -0.811  1.00  0.00    +0.136 A 
ATOM     28  C   UNL     1      15.630 -22.469  -2.311  1.00  0.00    +0.040 A 
ATOM     29  C   UNL     1      15.545 -20.434  -1.009  1.00  0.00    +0.079 A 
ATOM     30  C   UNL     1      14.911 -21.415  -1.757  1.00  0.00    +0.126 A 
ATOM     31  F   UNL     1      17.503 -19.539  -0.096  1.00  0.00    -0.206 F 
ATOM     32  F   UNL     1      13.588 -21.346  -1.951  1.00  0.00    -0.207 F 
ENDBRANCH  23  25
ENDBRANCH  22  23
ENDBRANCH   6  22
TORSDOF 6
ENDMDL
MODEL 3
REMARK VINA RESULT:    -8.118      3.638      7.249
REMARK INTER + INTRA:         -12.525
REMARK INTER:                 -11.877
REMARK INTRA:                  -0.648
REMARK UNBOUND:                -1.797
REMARK SMILES CC1(c2ccc(S(N)(=O)=O)cc2)NC(=O)N(CC(=O)c2ccc(F)cc2F)C1=O
REMARK SMILES IDX 1 1 2 2 13 3 14 4 15 5 16 6 28 7 29 8 3 10 4 11 12 12 5 13
REMARK SMILES IDX 11 14 6 15 7 16 9 17 10 18 8 19 17 22 18 23 19 24 20 25
REMARK SMILES IDX 21 26 26 27 22 28 25 29 23 30 27 31 24 32
REMARK H PARENT 13 9 8 20 8 21
ROOT
ATOM      1  C   UNL     1      16.192 -23.350   0.437  1.00  0.00    +0.051 C 
ATOM      2  C   UNL     1      17.385 -22.410   0.637  1.00  0.00    +0.144 C 
ATOM      3  N   UNL     1      18.161 -22.848   1.781  1.00  0.00    -0.319 N 
ATOM      4  C   UNL     1      18.052 -21.995   2.850  1.00  0.00    +0.325 C 
ATOM      5  O   UNL     1      18.521 -22.221   3.953  1.00  0.00    -0.248 OA
ATOM      6  N   UNL     1      17.341 -20.905   2.468  1.00  0.00    -0.254 N 
ATOM      7  C   UNL     1      16.883 -21.052   1.188  1.00  0.00    +0.261 C 
ATOM      8  O   UNL     1      16.166 -20.256   0.594  1.00  0.00    -0.271 OA
ATOM      9  H   UNL     1      18.548 -23.773   1.905  1.00  0.00    +0.166 HD
ENDROOT
BRANCH   2  10
ATOM     10  C   UNL     1      18.225 -22.253  -0.631  1.00  0.00    -0.013 A 
ATOM     11  C   UNL     1      17.598 -21.953  -1.858  1.00  0.00    +0.008 A 
ATOM     12  C   UNL     1      19.625 -22.396  -0.626  1.00  0.00    +0.008 A 
ATOM     13  C   UNL     1      18.337 -21.803  -3.034  1.00  0.00    +0.022 A 
ATOM     14  C   UNL     1      20.371 -22.250  -1.799  1.00  0.00    +0.022 A 
ATOM     15  C   UNL     1      19.721 -21.964  -3.000  1.00  0.00    +0.082 A 
BRANCH  15  16
ATOM     16  S   UNL     1      20.673 -21.766  -4.481  1.00  0.00    +0.238 S 
ATOM     17  O   UNL     1      21.739 -20.826  -4.221  1.00  0.00    -0.207 OA
ATOM     18  O   UNL     1      20.907 -23.070  -5.053  1.00  0.00    -0.207 OA
BRANCH  16  19
ATOM     19  N   UNL     1      19.583 -20.952  -5.473  1.00  0.00    -0.225 NA
ATOM     20  H   UNL     1      18.739 -20.653  -4.986  1.00  0.00    +0.137 HD
ATOM     21  H   UNL     1      20.066 -20.167  -5.917  1.00  0.00    +0.137 HD
ENDBRANCH  16  19
ENDBRANCH  15  16
ENDBRANCH   2  10
BRANCH   6  22
ATOM     22  C   UNL     1      16.953 -19.837   3.361  1.00  0.00    +0.211 C 
BRANCH  22  23
ATOM     23  C   UNL     1      15.588 -20.170   3.959  1.00  0.00    +0.185 C 
ATOM     24  O   UNL     1      15.247 -21.322   4.235  1.00  0.00    -0.292 OA
BRANCH  23  25
ATOM     25  C   UNL     1      14.622 -19.064   4.218  1.00  0.00    +0.055 A 
ATOM     26  C   UNL     1      14.028 -18.979   5.489  1.00  0.00    +0.018 A 
ATOM     27  C   UNL     1      14.276 -18.118   3.249  1.00  0.00    +0.136 A 
ATOM     28  C   UNL     1      13.118 -17.959   5.775  1.00  0.00    +0.040 A 
ATOM     29  C   UNL     1      13.369 -17.100   3.530  1.00  0.00    +0.079 A 
ATOM     30  C   UNL     1      12.798 -17.029   4.792  1.00  0.00    +0.126 A 
ATOM     31  F   UNL     1      14.797 -18.165   2.015  1.00  0.00    -0.206 F 
ATOM     32  F   UNL     1      11.924 -16.053   5.068  1.00  0.00    -0.207 F 
ENDBRANCH  23  25
ENDBRANCH  22  23
ENDBRANCH   6  22
TORSDOF 6
ENDMDL
MODEL 4
REMARK VINA RESULT:    -7.752      3.902      7.147
REMARK INTER + INTRA:         -12.042
REMARK INTER:                 -11.089
REMARK INTRA:                  -0.952
REMARK UNBOUND:                -1.797
REMARK SMILES CC1(c2ccc(S(N)(=O)=O)cc2)NC(=O)N(CC(=O)c2ccc(F)cc2F)C1=O
REMARK SMILES IDX 1 1 2 2 13 3 14 4 15 5 16 6 28 7 29 8 3 10 4 11 12 12 5 13
REMARK SMILES IDX 11 14 6 15 7 16 9 17 10 18 8 19 17 22 18 23 19 24 20 25
REMARK SMILES IDX 21 26 26 27 22 28 25 29 23 30 27 31 24 32
REMARK H PARENT 13 9 8 20 8 21
ROOT
ATOM      1  C   UNL     1      15.993 -23.809   1.352  1.00  0.00    +0.051 C 
ATOM      2  C   UNL     1      17.347 -23.115   1.528  1.00  0.00    +0.144 C 
ATOM      3  N   UNL     1      18.179 -23.894   2.424  1.00  0.00    -0.319 N 
ATOM      4  C   UNL     1      18.361 -23.282   3.639  1.00  0.00    +0.325 C 
ATOM      5  O   UNL     1      18.924 -23.804   4.587  1.00  0.00    -0.248 OA
ATOM      6  N   UNL     1      17.807 -22.045   3.592  1.00  0.00    -0.254 N 
ATOM      7  C   UNL     1      17.167 -21.848   2.401  1.00  0.00    +0.261 C 
ATOM      8  O   UNL     1      16.528 -20.849   2.094  1.00  0.00    -0.271 OA
ATOM      9  H   UNL     1      18.411 -24.871   2.306  1.00  0.00    +0.166 HD
ENDROOT
BRANCH   2  10
ATOM     10  C   UNL     1      18.027 -22.814   0.192  1.00  0.00    -0.013 A 
ATOM     11  C   UNL     1      19.428 -22.669   0.132  1.00  0.00    +0.008 A 
ATOM     12  C   UNL     1      17.301 -22.675  -1.006  1.00  0.00    +0.008 A 
ATOM     13  C   UNL     1      20.080 -22.394  -1.072  1.00  0.00    +0.022 A 
ATOM     14  C   UNL     1      17.945 -22.397  -2.215  1.00  0.00    +0.022 A 
ATOM     15  C   UNL     1      19.332 -22.248  -2.239  1.00  0.00    +0.082 A 
BRANCH  15  16
ATOM     16  S   UNL     1      20.145 -21.911  -3.777  1.00  0.00    +0.238 S 
ATOM     17  O   UNL     1      21.321 -21.115  -3.512  1.00  0.00    -0.207 OA
ATOM     18  O   UNL     1      20.188 -23.129  -4.550  1.00  0.00    -0.207 OA
BRANCH  16  19
ATOM     19  N   UNL     1      19.048 -20.867  -4.514  1.00  0.00    -0.225 NA
ATOM     20  H   UNL     1      19.083 -19.918  -4.144  1.00  0.00    +0.137 HD
ATOM     21  H   UNL     1      19.203 -20.889  -5.525  1.00  0.00    +0.137 HD
ENDBRANCH  16  19
ENDBRANCH  15  16
ENDBRANCH   2  10
BRANCH   6  22
ATOM     22  C   UNL     1      17.732 -21.148   4.723  1.00  0.00    +0.211 C 
BRANCH  22  23
ATOM     23  C   UNL     1      16.425 -21.406   5.468  1.00  0.00    +0.185 C 
ATOM     24  O   UNL     1      16.164 -22.490   5.995  1.00  0.00    -0.292 OA
BRANCH  23  25
ATOM     25  C   UNL     1      15.416 -20.312   5.562  1.00  0.00    +0.055 A 
ATOM     26  C   UNL     1      14.121 -20.556   5.076  1.00  0.00    +0.018 A 
ATOM     27  C   UNL     1      15.708 -19.057   6.102  1.00  0.00    +0.136 A 
ATOM     28  C   UNL     1      13.143 -19.559   5.143  1.00  0.00    +0.040 A 
ATOM     29  C   UNL     1      14.738 -18.061   6.171  1.00  0.00    +0.079 A 
ATOM     30  C   UNL     1      13.463 -18.321   5.692  1.00  0.00    +0.126 A 
ATOM     31  F   UNL     1      16.933 -18.766   6.561  1.00  0.00    -0.206 F 
ATOM     32  F   UNL     1      12.525 -17.368   5.755  1.00  0.00    -0.207 F 
ENDBRANCH  23  25
ENDBRANCH  22  23
ENDBRANCH   6  22
TORSDOF 6
ENDMDL
MODEL 5
REMARK VINA RESULT:    -7.728      3.928      7.628
REMARK INTER + INTRA:         -12.009
REMARK INTER:                 -11.375
REMARK INTRA:                  -0.634
REMARK UNBOUND:                -1.797
REMARK SMILES CC1(c2ccc(S(N)(=O)=O)cc2)NC(=O)N(CC(=O)c2ccc(F)cc2F)C1=O
REMARK SMILES IDX 1 1 2 2 13 3 14 4 15 5 16 6 28 7 29 8 3 10 4 11 12 12 5 13
REMARK SMILES IDX 11 14 6 15 7 16 9 17 10 18 8 19 17 22 18 23 19 24 20 25
REMARK SMILES IDX 21 26 26 27 22 28 25 29 23 30 27 31 24 32
REMARK H PARENT 13 9 8 20 8 21
ROOT
ATOM      1  C   UNL     1      15.904 -21.944  -1.353  1.00  0.00    +0.051 C 
ATOM      2  C   UNL     1      17.149 -21.834  -0.468  1.00  0.00    +0.144 C 
ATOM      3  N   UNL     1      16.948 -22.593   0.751  1.00  0.00    -0.319 N 
ATOM      4  C   UNL     1      16.803 -21.789   1.854  1.00  0.00    +0.325 C 
ATOM      5  O   UNL     1      16.507 -22.202   2.963  1.00  0.00    -0.248 OA
ATOM      6  N   UNL     1      17.029 -20.502   1.490  1.00  0.00    -0.254 N 
ATOM      7  C   UNL     1      17.224 -20.411   0.140  1.00  0.00    +0.261 C 
ATOM      8  O   UNL     1      17.395 -19.370  -0.485  1.00  0.00    -0.271 OA
ATOM      9  H   UNL     1      16.694 -23.570   0.797  1.00  0.00    +0.166 HD
ENDROOT
BRANCH   2  10
ATOM     10  C   UNL     1      18.429 -22.222  -1.209  1.00  0.00    -0.013 A 
ATOM     11  C   UNL     1      18.418 -22.354  -2.612  1.00  0.00    +0.008 A 
ATOM     12  C   UNL     1      19.644 -22.457  -0.537  1.00  0.00    +0.008 A 
ATOM     13  C   UNL     1      19.570 -22.708  -3.319  1.00  0.00    +0.022 A 
ATOM     14  C   UNL     1      20.801 -22.814  -1.236  1.00  0.00    +0.022 A 
ATOM     15  C   UNL     1      20.755 -22.946  -2.624  1.00  0.00    +0.082 A 
BRANCH  15  16
ATOM     16  S   UNL     1      22.228 -23.384  -3.507  1.00  0.00    +0.238 S 
ATOM     17  O   UNL     1      22.666 -22.238  -4.269  1.00  0.00    -0.207 OA
ATOM     18  O   UNL     1      23.101 -24.106  -2.612  1.00  0.00    -0.207 OA
BRANCH  16  19
ATOM     19  N   UNL     1      21.627 -24.478  -4.638  1.00  0.00    -0.225 NA
ATOM     20  H   UNL     1      20.704 -24.228  -4.990  1.00  0.00    +0.137 HD
ATOM     21  H   UNL     1      22.309 -24.577  -5.393  1.00  0.00    +0.137 HD
ENDBRANCH  16  19
ENDBRANCH  15  16
ENDBRANCH   2  10
BRANCH   6  22
ATOM     22  C   UNL     1      16.876 -19.371   2.376  1.00  0.00    +0.211 C 
BRANCH  22  23
ATOM     23  C   UNL     1      15.456 -18.828   2.238  1.00  0.00    +0.185 C 
ATOM     24  O   UNL     1      14.965 -18.522   1.150  1.00  0.00    -0.292 OA
BRANCH  23  25
ATOM     25  C   UNL     1      14.626 -18.652   3.464  1.00  0.00    +0.055 A 
ATOM     26  C   UNL     1      14.581 -19.703   4.396  1.00  0.00    +0.018 A 
ATOM     27  C   UNL     1      13.887 -17.494   3.719  1.00  0.00    +0.136 A 
ATOM     28  C   UNL     1      13.817 -19.581   5.560  1.00  0.00    +0.040 A 
ATOM     29  C   UNL     1      13.123 -17.368   4.876  1.00  0.00    +0.079 A 
ATOM     30  C   UNL     1      13.096 -18.414   5.788  1.00  0.00    +0.126 A 
ATOM     31  F   UNL     1      13.878 -16.471   2.853  1.00  0.00    -0.206 F 
ATOM     32  F   UNL     1      12.363 -18.299   6.902  1.00  0.00    -0.207 F 
ENDBRANCH  23  25
ENDBRANCH  22  23
ENDBRANCH   6  22
TORSDOF 6
ENDMDL
MODEL 6
REMARK VINA RESULT:    -7.596      3.534      6.948
REMARK INTER + INTRA:         -11.835
REMARK INTER:                 -11.157
REMARK INTRA:                  -0.678
REMARK UNBOUND:                -1.797
REMARK SMILES CC1(c2ccc(S(N)(=O)=O)cc2)NC(=O)N(CC(=O)c2ccc(F)cc2F)C1=O
REMARK SMILES IDX 1 1 2 2 13 3 14 4 15 5 16 6 28 7 29 8 3 10 4 11 12 12 5 13
REMARK SMILES IDX 11 14 6 15 7 16 9 17 10 18 8 19 17 22 18 23 19 24 20 25
REMARK SMILES IDX 21 26 26 27 22 28 25 29 23 30 27 31 24 32
REMARK H PARENT 13 9 8 20 8 21
ROOT
ATOM      1  C   UNL     1      18.139 -25.274   1.496  1.00  0.00    +0.051 C 
ATOM      2  C   UNL     1      18.389 -23.764   1.451  1.00  0.00    +0.144 C 
ATOM      3  N   UNL     1      19.147 -23.363   2.620  1.00  0.00    -0.319 N 
ATOM      4  C   UNL     1      18.401 -22.627   3.505  1.00  0.00    +0.325 C 
ATOM      5  O   UNL     1      18.794 -22.284   4.608  1.00  0.00    -0.248 OA
ATOM      6  N   UNL     1      17.188 -22.376   2.951  1.00  0.00    -0.254 N 
ATOM      7  C   UNL     1      17.067 -23.014   1.748  1.00  0.00    +0.261 C 
ATOM      8  O   UNL     1      16.064 -23.018   1.044  1.00  0.00    -0.271 OA
ATOM      9  H   UNL     1      20.034 -23.756   2.905  1.00  0.00    +0.166 HD
ENDROOT
BRANCH   2  10
ATOM     10  C   UNL     1      19.034 -23.318   0.138  1.00  0.00    -0.013 A 
ATOM     11  C   UNL     1      18.770 -22.031  -0.373  1.00  0.00    +0.008 A 
ATOM     12  C   UNL     1      19.899 -24.152  -0.595  1.00  0.00    +0.008 A 
ATOM     13  C   UNL     1      19.343 -21.592  -1.570  1.00  0.00    +0.022 A 
ATOM     14  C   UNL     1      20.474 -23.722  -1.794  1.00  0.00    +0.022 A 
ATOM     15  C   UNL     1      20.185 -22.446  -2.280  1.00  0.00    +0.082 A 
BRANCH  15  16
ATOM     16  S   UNL     1      20.929 -21.901  -3.793  1.00  0.00    +0.238 S 
ATOM     17  O   UNL     1      21.861 -20.839  -3.492  1.00  0.00    -0.207 OA
ATOM     18  O   UNL     1      21.295 -23.062  -4.569  1.00  0.00    -0.207 OA
BRANCH  16  19
ATOM     19  N   UNL     1      19.625 -21.156  -4.557  1.00  0.00    -0.225 NA
ATOM     20  H   UNL     1      19.654 -21.236  -5.572  1.00  0.00    +0.137 HD
ATOM     21  H   UNL     1      18.758 -21.533  -4.168  1.00  0.00    +0.137 HD
ENDBRANCH  16  19
ENDBRANCH  15  16
ENDBRANCH   2  10
BRANCH   6  22
ATOM     22  C   UNL     1      16.109 -21.700   3.635  1.00  0.00    +0.211 C 
BRANCH  22  23
ATOM     23  C   UNL     1      16.159 -20.215   3.281  1.00  0.00    +0.185 C 
ATOM     24  O   UNL     1      16.976 -19.749   2.485  1.00  0.00    -0.292 OA
BRANCH  23  25
ATOM     25  C   UNL     1      15.188 -19.285   3.925  1.00  0.00    +0.055 A 
ATOM     26  C   UNL     1      14.941 -19.425   5.301  1.00  0.00    +0.018 A 
ATOM     27  C   UNL     1      14.508 -18.290   3.217  1.00  0.00    +0.136 A 
ATOM     28  C   UNL     1      14.039 -18.574   5.946  1.00  0.00    +0.040 A 
ATOM     29  C   UNL     1      13.608 -17.440   3.855  1.00  0.00    +0.079 A 
ATOM     30  C   UNL     1      13.382 -17.590   5.215  1.00  0.00    +0.126 A 
ATOM     31  F   UNL     1      14.691 -18.127   1.899  1.00  0.00    -0.206 F 
ATOM     32  F   UNL     1      12.518 -16.776   5.835  1.00  0.00    -0.207 F 
ENDBRANCH  23  25
ENDBRANCH  22  23
ENDBRANCH   6  22
TORSDOF 6
ENDMDL
MODEL 7
REMARK VINA RESULT:    -7.566      3.636      6.208
REMARK INTER + INTRA:         -11.795
REMARK INTER:                 -10.978
REMARK INTRA:                  -0.817
REMARK UNBOUND:                -1.797
REMARK SMILES CC1(c2ccc(S(N)(=O)=O)cc2)NC(=O)N(CC(=O)c2ccc(F)cc2F)C1=O
REMARK SMILES IDX 1 1 2 2 13 3 14 4 15 5 16 6 28 7 29 8 3 10 4 11 12 12 5 13
REMARK SMILES IDX 11 14 6 15 7 16 9 17 10 18 8 19 17 22 18 23 19 24 20 25
REMARK SMILES IDX 21 26 26 27 22 28 25 29 23 30 27 31 24 32
REMARK H PARENT 13 9 8 20 8 21
ROOT
ATOM      1  C   UNL     1      19.240 -22.504  -2.688  1.00  0.00    +0.051 C 
ATOM      2  C   UNL     1      18.792 -22.241  -1.247  1.00  0.00    +0.144 C 
ATOM      3  N   UNL     1      17.615 -23.035  -0.952  1.00  0.00    -0.319 N 
ATOM      4  C   UNL     1      16.482 -22.271  -0.830  1.00  0.00    +0.325 C 
ATOM      5  O   UNL     1      15.360 -22.733  -0.701  1.00  0.00    -0.248 OA
ATOM      6  N   UNL     1      16.829 -20.962  -0.892  1.00  0.00    -0.254 N 
ATOM      7  C   UNL     1      18.164 -20.828  -1.154  1.00  0.00    +0.261 C 
ATOM      8  O   UNL     1      18.752 -19.767  -1.321  1.00  0.00    -0.271 OA
ATOM      9  H   UNL     1      17.545 -24.038  -1.057  1.00  0.00    +0.166 HD
ENDROOT
BRANCH   2  10
ATOM     10  C   UNL     1      19.921 -22.448  -0.237  1.00  0.00    -0.013 A 
ATOM     11  C   UNL     1      19.764 -22.011   1.094  1.00  0.00    +0.008 A 
ATOM     12  C   UNL     1      21.135 -23.070  -0.585  1.00  0.00    +0.008 A 
ATOM     13  C   UNL     1      20.776 -22.185   2.041  1.00  0.00    +0.022 A 
ATOM     14  C   UNL     1      22.154 -23.246   0.356  1.00  0.00    +0.022 A 
ATOM     15  C   UNL     1      21.972 -22.793   1.663  1.00  0.00    +0.082 A 
BRANCH  15  16
ATOM     16  S   UNL     1      23.261 -23.031   2.855  1.00  0.00    +0.238 S 
ATOM     17  O   UNL     1      23.824 -24.349   2.669  1.00  0.00    -0.207 OA
ATOM     18  O   UNL     1      24.070 -21.837   2.900  1.00  0.00    -0.207 OA
BRANCH  16  19
ATOM     19  N   UNL     1      22.380 -23.114   4.289  1.00  0.00    -0.225 NA
ATOM     20  H   UNL     1      21.414 -22.805   4.187  1.00  0.00    +0.137 HD
ATOM     21  H   UNL     1      22.439 -24.066   4.656  1.00  0.00    +0.137 HD
ENDBRANCH  16  19
ENDBRANCH  15  16
ENDBRANCH   2  10
BRANCH   6  22
ATOM     22  C   UNL     1      15.880 -19.871  -0.887  1.00  0.00    +0.211 C 
BRANCH  22  23
ATOM     23  C   UNL     1      16.263 -18.893   0.222  1.00  0.00    +0.185 C 
ATOM     24  O   UNL     1      16.822 -17.818  -0.006  1.00  0.00    -0.292 OA
BRANCH  23  25
ATOM     25  C   UNL     1      15.959 -19.248   1.637  1.00  0.00    +0.055 A 
ATOM     26  C   UNL     1      16.649 -20.324   2.219  1.00  0.00    +0.018 A 
ATOM     27  C   UNL     1      15.012 -18.562   2.403  1.00  0.00    +0.136 A 
ATOM     28  C   UNL     1      16.395 -20.691   3.543  1.00  0.00    +0.040 A 
ATOM     29  C   UNL     1      14.755 -18.923   3.723  1.00  0.00    +0.079 A 
ATOM     30  C   UNL     1      15.451 -19.986   4.282  1.00  0.00    +0.126 A 
ATOM     31  F   UNL     1      14.311 -17.541   1.890  1.00  0.00    -0.206 F 
ATOM     32  F   UNL     1      15.208 -20.339   5.550  1.00  0.00    -0.207 F 
ENDBRANCH  23  25
ENDBRANCH  22  23
ENDBRANCH   6  22
TORSDOF 6
ENDMDL
MODEL 8
REMARK VINA RESULT:    -7.521      2.389      4.444
REMARK INTER + INTRA:         -11.736
REMARK INTER:                 -10.412
REMARK INTRA:                  -1.324
REMARK UNBOUND:                -1.797
REMARK SMILES CC1(c2ccc(S(N)(=O)=O)cc2)NC(=O)N(CC(=O)c2ccc(F)cc2F)C1=O
REMARK SMILES IDX 1 1 2 2 13 3 14 4 15 5 16 6 28 7 29 8 3 10 4 11 12 12 5 13
REMARK SMILES IDX 11 14 6 15 7 16 9 17 10 18 8 19 17 22 18 23 19 24 20 25
REMARK SMILES IDX 21 26 26 27 22 28 25 29 23 30 27 31 24 32
REMARK H PARENT 13 9 8 20 8 21
ROOT
ATOM      1  C   UNL     1      16.938 -18.490  -0.649  1.00  0.00    +0.051 C 
ATOM      2  C   UNL     1      16.937 -19.610   0.395  1.00  0.00    +0.144 C 
ATOM      3  N   UNL     1      18.302 -20.002   0.688  1.00  0.00    -0.319 N 
ATOM      4  C   UNL     1      18.609 -21.247   0.200  1.00  0.00    +0.325 C 
ATOM      5  O   UNL     1      19.728 -21.731   0.225  1.00  0.00    -0.248 OA
ATOM      6  N   UNL     1      17.482 -21.807  -0.306  1.00  0.00    -0.254 N 
ATOM      7  C   UNL     1      16.441 -20.923  -0.259  1.00  0.00    +0.261 C 
ATOM      8  O   UNL     1      15.314 -21.128  -0.696  1.00  0.00    -0.271 OA
ATOM      9  H   UNL     1      19.037 -19.378   0.991  1.00  0.00    +0.166 HD
ENDROOT
BRANCH   2  10
ATOM     10  C   UNL     1      16.139 -19.241   1.647  1.00  0.00    -0.013 A 
ATOM     11  C   UNL     1      16.386 -19.912   2.862  1.00  0.00    +0.008 A 
ATOM     12  C   UNL     1      15.150 -18.239   1.639  1.00  0.00    +0.008 A 
ATOM     13  C   UNL     1      15.675 -19.600   4.023  1.00  0.00    +0.022 A 
ATOM     14  C   UNL     1      14.432 -17.922   2.795  1.00  0.00    +0.022 A 
ATOM     15  C   UNL     1      14.692 -18.611   3.980  1.00  0.00    +0.082 A 
BRANCH  15  16
ATOM     16  S   UNL     1      13.789 -18.195   5.447  1.00  0.00    +0.238 S 
ATOM     17  O   UNL     1      12.598 -19.010   5.502  1.00  0.00    -0.207 OA
ATOM     18  O   UNL     1      14.720 -18.100   6.546  1.00  0.00    -0.207 OA
BRANCH  16  19
ATOM     19  N   UNL     1      13.257 -16.639   5.082  1.00  0.00    -0.225 NA
ATOM     20  H   UNL     1      12.383 -16.394   5.543  1.00  0.00    +0.137 HD
ATOM     21  H   UNL     1      14.005 -15.977   5.303  1.00  0.00    +0.137 HD
ENDBRANCH  16  19
ENDBRANCH  15  16
ENDBRANCH   2  10
BRANCH   6  22
ATOM     22  C   UNL     1      17.447 -23.083  -0.985  1.00  0.00    +0.211 C 
BRANCH  22  23
ATOM     23  C   UNL     1      17.091 -24.168   0.028  1.00  0.00    +0.185 C 
ATOM     24  O   UNL     1      16.095 -24.886  -0.090  1.00  0.00    -0.292 OA
BRANCH  23  25
ATOM     25  C   UNL     1      17.973 -24.371   1.212  1.00  0.00    +0.055 A 
ATOM     26  C   UNL     1      19.189 -25.051   1.031  1.00  0.00    +0.018 A 
ATOM     27  C   UNL     1      17.638 -23.921   2.492  1.00  0.00    +0.136 A 
ATOM     28  C   UNL     1      20.047 -25.263   2.113  1.00  0.00    +0.040 A 
ATOM     29  C   UNL     1      18.489 -24.130   3.574  1.00  0.00    +0.079 A 
ATOM     30  C   UNL     1      19.688 -24.799   3.374  1.00  0.00    +0.126 A 
ATOM     31  F   UNL     1      16.482 -23.284   2.724  1.00  0.00    -0.206 F 
ATOM     32  F   UNL     1      20.511 -25.004   4.410  1.00  0.00    -0.207 F 
ENDBRANCH  23  25
ENDBRANCH  22  23
ENDBRANCH   6  22
TORSDOF 6
ENDMDL
MODEL 9
REMARK VINA RESULT:    -7.488      2.784      4.066
REMARK INTER + INTRA:         -11.692
REMARK INTER:                 -10.524
REMARK INTRA:                  -1.168
REMARK UNBOUND:                -1.797
REMARK SMILES CC1(c2ccc(S(N)(=O)=O)cc2)NC(=O)N(CC(=O)c2ccc(F)cc2F)C1=O
REMARK SMILES IDX 1 1 2 2 13 3 14 4 15 5 16 6 28 7 29 8 3 10 4 11 12 12 5 13
REMARK SMILES IDX 11 14 6 15 7 16 9 17 10 18 8 19 17 22 18 23 19 24 20 25
REMARK SMILES IDX 21 26 26 27 22 28 25 29 23 30 27 31 24 32
REMARK H PARENT 13 9 8 20 8 21
ROOT
ATOM      1  C   UNL     1      17.606 -23.045   4.410  1.00  0.00    +0.051 C 
ATOM      2  C   UNL     1      16.905 -22.334   3.248  1.00  0.00    +0.144 C 
ATOM      3  N   UNL     1      16.203 -23.309   2.435  1.00  0.00    -0.319 N 
ATOM      4  C   UNL     1      16.790 -23.490   1.208  1.00  0.00    +0.325 C 
ATOM      5  O   UNL     1      16.443 -24.343   0.407  1.00  0.00    -0.248 OA
ATOM      6  N   UNL     1      17.794 -22.590   1.066  1.00  0.00    -0.254 N 
ATOM      7  C   UNL     1      17.962 -21.870   2.215  1.00  0.00    +0.261 C 
ATOM      8  O   UNL     1      18.828 -21.024   2.404  1.00  0.00    -0.271 OA
ATOM      9  H   UNL     1      15.518 -23.969   2.775  1.00  0.00    +0.166 HD
ENDROOT
BRANCH   2  10
ATOM     10  C   UNL     1      16.005 -21.191   3.720  1.00  0.00    -0.013 A 
ATOM     11  C   UNL     1      15.253 -21.330   4.905  1.00  0.00    +0.008 A 
ATOM     12  C   UNL     1      15.894 -19.981   3.009  1.00  0.00    +0.008 A 
ATOM     13  C   UNL     1      14.422 -20.304   5.363  1.00  0.00    +0.022 A 
ATOM     14  C   UNL     1      15.063 -18.951   3.459  1.00  0.00    +0.022 A 
ATOM     15  C   UNL     1      14.324 -19.123   4.630  1.00  0.00    +0.082 A 
BRANCH  15  16
ATOM     16  S   UNL     1      13.283 -17.808   5.203  1.00  0.00    +0.238 S 
ATOM     17  O   UNL     1      12.394 -17.423   4.132  1.00  0.00    -0.207 OA
ATOM     18  O   UNL     1      12.810 -18.142   6.526  1.00  0.00    -0.207 OA
BRANCH  16  19
ATOM     19  N   UNL     1      14.388 -16.546   5.351  1.00  0.00    -0.225 NA
ATOM     20  H   UNL     1      14.856 -16.524   6.255  1.00  0.00    +0.137 HD
ATOM     21  H   UNL     1      15.054 -16.601   4.577  1.00  0.00    +0.137 HD
ENDBRANCH  16  19
ENDBRANCH  15  16
ENDBRANCH   2  10
BRANCH   6  22
ATOM     22  C   UNL     1      18.689 -22.547  -0.068  1.00  0.00    +0.211 C 
BRANCH  22  23
ATOM     23  C   UNL     1      19.692 -23.693   0.055  1.00  0.00    +0.185 C 
ATOM     24  O   UNL     1      19.859 -24.527  -0.837  1.00  0.00    -0.292 OA
BRANCH  23  25
ATOM     25  C   UNL     1      20.499 -23.817   1.302  1.00  0.00    +0.055 A 
ATOM     26  C   UNL     1      21.602 -22.963   1.472  1.00  0.00    +0.018 A 
ATOM     27  C   UNL     1      20.211 -24.751   2.300  1.00  0.00    +0.136 A 
ATOM     28  C   UNL     1      22.386 -23.045   2.625  1.00  0.00    +0.040 A 
ATOM     29  C   UNL     1      20.990 -24.837   3.451  1.00  0.00    +0.079 A 
ATOM     30  C   UNL     1      22.071 -23.982   3.604  1.00  0.00    +0.126 A 
ATOM     31  F   UNL     1      19.183 -25.603   2.180  1.00  0.00    -0.206 F 
ATOM     32  F   UNL     1      22.825 -24.059   4.708  1.00  0.00    -0.207 F 
ENDBRANCH  23  25
ENDBRANCH  22  23
ENDBRANCH   6  22
TORSDOF 6
ENDMDL
