MODEL 1
REMARK VINA RESULT:    -8.132      0.000      0.000
REMARK INTER + INTRA:         -12.176
REMARK INTER:                 -10.984
REMARK INTRA:                  -1.192
REMARK UNBOUND:                -1.192
REMARK SMILES CCOC(=O)NC(=O)c1ccsc1NC(=O)c1ccc(C(C)=O)cc1
REMARK SMILES IDX 9 1 10 2 11 3 12 4 13 5 7 6 4 7 5 8 6 9 8 10 3 12 2 13 1 14
REMARK SMILES IDX 14 15 15 16 16 17 17 19 18 20 25 21 19 22 24 23 20 24 21 25
REMARK SMILES IDX 23 26 22 27
REMARK H PARENT 6 11 14 18
ROOT
ATOM      1  C   UNL     1      17.072 -24.284   0.841  1.00  0.00    +0.075 A 
ATOM      2  C   UNL     1      17.967 -25.375   0.544  1.00  0.00    +0.028 A 
ATOM      3  C   UNL     1      18.722 -25.757   1.630  1.00  0.00    +0.068 A 
ATOM      4  S   UNL     1      18.376 -24.813   3.003  1.00  0.00    -0.126 S 
ATOM      5  C   UNL     1      17.218 -23.893   2.171  1.00  0.00    +0.108 A 
ENDROOT
BRANCH   1   6
ATOM      6  C   UNL     1      16.123 -23.611  -0.064  1.00  0.00    +0.263 C 
ATOM      7  C   UNL     1      15.917 -21.696  -1.549  1.00  0.00    +0.414 C 
ATOM      8  O   UNL     1      14.749 -21.802  -1.881  1.00  0.00    -0.224 OA
ATOM      9  N   UNL     1      16.612 -22.480  -0.676  1.00  0.00    -0.257 N 
ATOM     10  O   UNL     1      14.999 -24.072  -0.241  1.00  0.00    -0.269 OA
ATOM     11  H   UNL     1      17.566 -22.200  -0.550  1.00  0.00    +0.176 HD
BRANCH   7  12
ATOM     12  O   UNL     1      16.759 -20.727  -1.997  1.00  0.00    -0.450 OA
BRANCH  12  13
ATOM     13  C   UNL     1      17.686 -20.206  -1.031  1.00  0.00    +0.231 C 
ATOM     14  C   UNL     1      17.114 -18.963  -0.374  1.00  0.00    +0.049 C 
ENDBRANCH  12  13
ENDBRANCH   7  12
ENDBRANCH   1   6
BRANCH   5  15
ATOM     15  N   UNL     1      16.527 -22.860   2.789  1.00  0.00    -0.313 N 
ATOM     16  C   UNL     1      16.881 -21.526   2.850  1.00  0.00    +0.256 C 
ATOM     17  O   UNL     1      17.908 -21.008   2.430  1.00  0.00    -0.269 OA
ATOM     18  H   UNL     1      15.691 -23.164   3.287  1.00  0.00    +0.171 HD
BRANCH  16  19
ATOM     19  C   UNL     1      15.895 -20.644   3.546  1.00  0.00    +0.040 A 
ATOM     20  C   UNL     1      15.267 -21.013   4.743  1.00  0.00    +0.014 A 
ATOM     21  C   UNL     1      15.569 -19.416   2.953  1.00  0.00    +0.014 A 
ATOM     22  C   UNL     1      14.344 -20.149   5.345  1.00  0.00    +0.012 A 
ATOM     23  C   UNL     1      14.646 -18.553   3.554  1.00  0.00    +0.012 A 
ATOM     24  C   UNL     1      14.029 -18.915   4.758  1.00  0.00    +0.017 A 
BRANCH  24  25
ATOM     25  C   UNL     1      13.036 -18.034   5.440  1.00  0.00    +0.159 C 
ATOM     26  O   UNL     1      12.756 -18.228   6.622  1.00  0.00    -0.295 OA
ATOM     27  C   UNL     1      12.392 -16.917   4.661  1.00  0.00    +0.093 C 
ENDBRANCH  24  25
ENDBRANCH  16  19
ENDBRANCH   5  15
TORSDOF 6
ENDMDL
MODEL 2
REMARK VINA RESULT:    -7.921      3.423      7.635
REMARK INTER + INTRA:         -11.891
REMARK INTER:                 -11.161
REMARK INTRA:                  -0.730
REMARK UNBOUND:                -1.192
REMARK SMILES CCOC(=O)NC(=O)c1ccsc1NC(=O)c1ccc(C(C)=O)cc1
REMARK SMILES IDX 9 1 10 2 11 3 12 4 13 5 7 6 4 7 5 8 6 9 8 10 3 12 2 13 1 14
REMARK SMILES IDX 14 15 15 16 16 17 17 19 18 20 25 21 19 22 24 23 20 24 21 25
REMARK SMILES IDX 23 26 22 27
REMARK H PARENT 6 11 14 18
ROOT
ATOM      1  C   UNL     1      14.281 -18.119   5.074  1.00  0.00    +0.075 A 
ATOM      2  C   UNL     1      13.230 -17.409   5.760  1.00  0.00    +0.028 A 
ATOM      3  C   UNL     1      12.348 -16.797   4.897  1.00  0.00    +0.068 A 
ATOM      4  S   UNL     1      12.773 -17.056   3.270  1.00  0.00    -0.126 S 
ATOM      5  C   UNL     1      14.127 -17.987   3.695  1.00  0.00    +0.108 A 
ENDROOT
BRANCH   1   6
ATOM      6  C   UNL     1      15.398 -18.882   5.659  1.00  0.00    +0.263 C 
ATOM      7  C   UNL     1      16.360 -21.114   5.747  1.00  0.00    +0.414 C 
ATOM      8  O   UNL     1      17.271 -20.928   6.535  1.00  0.00    -0.224 OA
ATOM      9  N   UNL     1      15.425 -20.215   5.324  1.00  0.00    -0.257 N 
ATOM     10  O   UNL     1      16.227 -18.323   6.372  1.00  0.00    -0.269 OA
ATOM     11  H   UNL     1      14.763 -20.595   4.674  1.00  0.00    +0.176 HD
BRANCH   7  12
ATOM     12  O   UNL     1      16.097 -22.303   5.142  1.00  0.00    -0.450 OA
BRANCH  12  13
ATOM     13  C   UNL     1      16.172 -22.306   3.707  1.00  0.00    +0.231 C 
ATOM     14  C   UNL     1      17.386 -23.093   3.248  1.00  0.00    +0.049 C 
ENDBRANCH  12  13
ENDBRANCH   7  12
ENDBRANCH   1   6
BRANCH   5  15
ATOM     15  N   UNL     1      14.972 -18.525   2.733  1.00  0.00    -0.313 N 
ATOM     16  C   UNL     1      15.452 -17.911   1.594  1.00  0.00    +0.256 C 
ATOM     17  O   UNL     1      15.170 -16.796   1.173  1.00  0.00    -0.269 OA
ATOM     18  H   UNL     1      15.208 -19.504   2.894  1.00  0.00    +0.171 HD
BRANCH  16  19
ATOM     19  C   UNL     1      16.393 -18.740   0.780  1.00  0.00    +0.040 A 
ATOM     20  C   UNL     1      16.481 -18.634  -0.614  1.00  0.00    +0.014 A 
ATOM     21  C   UNL     1      17.193 -19.681   1.446  1.00  0.00    +0.014 A 
ATOM     22  C   UNL     1      17.376 -19.443  -1.323  1.00  0.00    +0.012 A 
ATOM     23  C   UNL     1      18.086 -20.491   0.737  1.00  0.00    +0.012 A 
ATOM     24  C   UNL     1      18.185 -20.375  -0.655  1.00  0.00    +0.017 A 
BRANCH  24  25
ATOM     25  C   UNL     1      19.118 -21.215  -1.461  1.00  0.00    +0.159 C 
ATOM     26  O   UNL     1      19.269 -20.986  -2.660  1.00  0.00    -0.295 OA
ATOM     27  C   UNL     1      19.863 -22.337  -0.784  1.00  0.00    +0.093 C 
ENDBRANCH  24  25
ENDBRANCH  16  19
ENDBRANCH   5  15
TORSDOF 6
ENDMDL
MODEL 3
REMARK VINA RESULT:    -7.776      3.071      7.479
REMARK INTER + INTRA:         -11.696
REMARK INTER:                 -10.707
REMARK INTRA:                  -0.989
REMARK UNBOUND:                -1.192
REMARK SMILES CCOC(=O)NC(=O)c1ccsc1NC(=O)c1ccc(C(C)=O)cc1
REMARK SMILES IDX 9 1 10 2 11 3 12 4 13 5 7 6 4 7 5 8 6 9 8 10 3 12 2 13 1 14
REMARK SMILES IDX 14 15 15 16 16 17 17 19 18 20 25 21 19 22 24 23 20 24 21 25
REMARK SMILES IDX 23 26 22 27
REMARK H PARENT 6 11 14 18
ROOT
ATOM      1  C   UNL     1      16.256 -20.316   3.146  1.00  0.00    +0.075 A 
ATOM      2  C   UNL     1      15.765 -20.588   4.474  1.00  0.00    +0.028 A 
ATOM      3  C   UNL     1      16.127 -21.836   4.931  1.00  0.00    +0.068 A 
ATOM      4  S   UNL     1      17.042 -22.690   3.779  1.00  0.00    -0.126 S 
ATOM      5  C   UNL     1      16.972 -21.411   2.666  1.00  0.00    +0.108 A 
ENDROOT
BRANCH   1   6
ATOM      6  C   UNL     1      16.066 -19.099   2.336  1.00  0.00    +0.263 C 
ATOM      7  C   UNL     1      14.574 -17.201   2.046  1.00  0.00    +0.414 C 
ATOM      8  O   UNL     1      15.090 -16.663   1.081  1.00  0.00    -0.224 OA
ATOM      9  N   UNL     1      14.953 -18.359   2.658  1.00  0.00    -0.257 N 
ATOM     10  O   UNL     1      16.876 -18.801   1.462  1.00  0.00    -0.269 OA
ATOM     11  H   UNL     1      14.373 -18.615   3.435  1.00  0.00    +0.176 HD
BRANCH   7  12
ATOM     12  O   UNL     1      13.476 -16.728   2.693  1.00  0.00    -0.450 OA
BRANCH  12  13
ATOM     13  C   UNL     1      13.350 -17.107   4.074  1.00  0.00    +0.231 C 
ATOM     14  C   UNL     1      11.955 -16.790   4.579  1.00  0.00    +0.049 C 
ENDBRANCH  12  13
ENDBRANCH   7  12
ENDBRANCH   1   6
BRANCH   5  15
ATOM     15  N   UNL     1      17.566 -21.501   1.415  1.00  0.00    -0.313 N 
ATOM     16  C   UNL     1      18.914 -21.590   1.124  1.00  0.00    +0.256 C 
ATOM     17  O   UNL     1      19.851 -21.535   1.911  1.00  0.00    -0.269 OA
ATOM     18  H   UNL     1      16.905 -21.446   0.640  1.00  0.00    +0.171 HD
BRANCH  16  19
ATOM     19  C   UNL     1      19.237 -21.732  -0.329  1.00  0.00    +0.040 A 
ATOM     20  C   UNL     1      20.322 -22.487  -0.790  1.00  0.00    +0.014 A 
ATOM     21  C   UNL     1      18.435 -21.051  -1.256  1.00  0.00    +0.014 A 
ATOM     22  C   UNL     1      20.582 -22.577  -2.162  1.00  0.00    +0.012 A 
ATOM     23  C   UNL     1      18.695 -21.139  -2.628  1.00  0.00    +0.012 A 
ATOM     24  C   UNL     1      19.771 -21.906  -3.090  1.00  0.00    +0.017 A 
BRANCH  24  25
ATOM     25  C   UNL     1      20.095 -22.032  -4.542  1.00  0.00    +0.159 C 
ATOM     26  O   UNL     1      20.030 -21.044  -5.271  1.00  0.00    -0.295 OA
ATOM     27  C   UNL     1      20.496 -23.378  -5.087  1.00  0.00    +0.093 C 
ENDBRANCH  24  25
ENDBRANCH  16  19
ENDBRANCH   5  15
TORSDOF 6
ENDMDL
MODEL 4
REMARK VINA RESULT:    -7.704      2.829      4.520
REMARK INTER + INTRA:         -11.598
REMARK INTER:                 -11.199
REMARK INTRA:                  -0.399
REMARK UNBOUND:                -1.192
REMARK SMILES CCOC(=O)NC(=O)c1ccsc1NC(=O)c1ccc(C(C)=O)cc1
REMARK SMILES IDX 9 1 10 2 11 3 12 4 13 5 7 6 4 7 5 8 6 9 8 10 3 12 2 13 1 14
REMARK SMILES IDX 14 15 15 16 16 17 17 19 18 20 25 21 19 22 24 23 20 24 21 25
REMARK SMILES IDX 23 26 22 27
REMARK H PARENT 6 11 14 18
ROOT
ATOM      1  C   UNL     1      18.853 -21.754   0.328  1.00  0.00    +0.075 A 
ATOM      2  C   UNL     1      19.532 -22.283  -0.829  1.00  0.00    +0.028 A 
ATOM      3  C   UNL     1      19.025 -21.796  -2.013  1.00  0.00    +0.068 A 
ATOM      4  S   UNL     1      17.734 -20.718  -1.752  1.00  0.00    -0.126 S 
ATOM      5  C   UNL     1      17.840 -20.883  -0.066  1.00  0.00    +0.108 A 
ENDROOT
BRANCH   1   6
ATOM      6  C   UNL     1      19.113 -22.047   1.750  1.00  0.00    +0.263 C 
ATOM      7  C   UNL     1      17.987 -22.341   3.885  1.00  0.00    +0.414 C 
ATOM      8  O   UNL     1      18.948 -22.492   4.620  1.00  0.00    -0.224 OA
ATOM      9  N   UNL     1      17.991 -22.090   2.545  1.00  0.00    -0.257 N 
ATOM     10  O   UNL     1      20.258 -22.248   2.144  1.00  0.00    -0.269 OA
ATOM     11  H   UNL     1      17.075 -21.995   2.147  1.00  0.00    +0.176 HD
BRANCH   7  12
ATOM     12  O   UNL     1      16.691 -22.379   4.296  1.00  0.00    -0.450 OA
BRANCH  12  13
ATOM     13  C   UNL     1      16.430 -21.832   5.599  1.00  0.00    +0.231 C 
ATOM     14  C   UNL     1      14.936 -21.799   5.864  1.00  0.00    +0.049 C 
ENDBRANCH  12  13
ENDBRANCH   7  12
ENDBRANCH   1   6
BRANCH   5  15
ATOM     15  N   UNL     1      16.975 -20.211   0.786  1.00  0.00    -0.313 N 
ATOM     16  C   UNL     1      16.555 -18.898   0.701  1.00  0.00    +0.256 C 
ATOM     17  O   UNL     1      16.921 -18.050  -0.104  1.00  0.00    -0.269 OA
ATOM     18  H   UNL     1      16.668 -20.769   1.584  1.00  0.00    +0.171 HD
BRANCH  16  19
ATOM     19  C   UNL     1      15.570 -18.483   1.746  1.00  0.00    +0.040 A 
ATOM     20  C   UNL     1      14.751 -17.356   1.605  1.00  0.00    +0.014 A 
ATOM     21  C   UNL     1      15.495 -19.240   2.924  1.00  0.00    +0.014 A 
ATOM     22  C   UNL     1      13.853 -17.010   2.621  1.00  0.00    +0.012 A 
ATOM     23  C   UNL     1      14.598 -18.893   3.942  1.00  0.00    +0.012 A 
ATOM     24  C   UNL     1      13.768 -17.775   3.794  1.00  0.00    +0.017 A 
BRANCH  24  25
ATOM     25  C   UNL     1      12.796 -17.360   4.848  1.00  0.00    +0.159 C 
ATOM     26  O   UNL     1      12.018 -16.432   4.631  1.00  0.00    -0.295 OA
ATOM     27  C   UNL     1      12.790 -18.090   6.165  1.00  0.00    +0.093 C 
ENDBRANCH  24  25
ENDBRANCH  16  19
ENDBRANCH   5  15
TORSDOF 6
ENDMDL
MODEL 5
REMARK VINA RESULT:    -7.624      1.479      2.276
REMARK INTER + INTRA:         -11.489
REMARK INTER:                 -10.542
REMARK INTRA:                  -0.948
REMARK UNBOUND:                -1.192
REMARK SMILES CCOC(=O)NC(=O)c1ccsc1NC(=O)c1ccc(C(C)=O)cc1
REMARK SMILES IDX 9 1 10 2 11 3 12 4 13 5 7 6 4 7 5 8 6 9 8 10 3 12 2 13 1 14
REMARK SMILES IDX 14 15 15 16 16 17 17 19 18 20 25 21 19 22 24 23 20 24 21 25
REMARK SMILES IDX 23 26 22 27
REMARK H PARENT 6 11 14 18
ROOT
ATOM      1  C   UNL     1      18.597 -23.404   0.934  1.00  0.00    +0.075 A 
ATOM      2  C   UNL     1      19.286 -24.616   0.562  1.00  0.00    +0.028 A 
ATOM      3  C   UNL     1      18.923 -25.694   1.338  1.00  0.00    +0.068 A 
ATOM      4  S   UNL     1      17.773 -25.267   2.517  1.00  0.00    -0.126 S 
ATOM      5  C   UNL     1      17.740 -23.649   2.005  1.00  0.00    +0.108 A 
ENDROOT
BRANCH   1   6
ATOM      6  C   UNL     1      18.729 -22.062   0.338  1.00  0.00    +0.263 C 
ATOM      7  C   UNL     1      17.873 -20.669  -1.461  1.00  0.00    +0.414 C 
ATOM      8  O   UNL     1      18.567 -19.677  -1.319  1.00  0.00    -0.224 OA
ATOM      9  N   UNL     1      17.921 -21.831  -0.750  1.00  0.00    -0.257 N 
ATOM     10  O   UNL     1      19.502 -21.240   0.823  1.00  0.00    -0.269 OA
ATOM     11  H   UNL     1      17.254 -22.518  -1.049  1.00  0.00    +0.176 HD
BRANCH   7  12
ATOM     12  O   UNL     1      16.902 -20.798  -2.405  1.00  0.00    -0.450 OA
BRANCH  12  13
ATOM     13  C   UNL     1      16.052 -21.950  -2.276  1.00  0.00    +0.231 C 
ATOM     14  C   UNL     1      14.611 -21.518  -2.075  1.00  0.00    +0.049 C 
ENDBRANCH  12  13
ENDBRANCH   7  12
ENDBRANCH   1   6
BRANCH   5  15
ATOM     15  N   UNL     1      16.940 -22.704   2.631  1.00  0.00    -0.313 N 
ATOM     16  C   UNL     1      17.148 -22.098   3.854  1.00  0.00    +0.256 C 
ATOM     17  O   UNL     1      18.044 -22.328   4.657  1.00  0.00    -0.269 OA
ATOM     18  H   UNL     1      16.082 -22.489   2.122  1.00  0.00    +0.171 HD
BRANCH  16  19
ATOM     19  C   UNL     1      16.127 -21.073   4.232  1.00  0.00    +0.040 A 
ATOM     20  C   UNL     1      15.933 -19.895   3.499  1.00  0.00    +0.014 A 
ATOM     21  C   UNL     1      15.360 -21.295   5.385  1.00  0.00    +0.014 A 
ATOM     22  C   UNL     1      14.967 -18.967   3.906  1.00  0.00    +0.012 A 
ATOM     23  C   UNL     1      14.395 -20.367   5.793  1.00  0.00    +0.012 A 
ATOM     24  C   UNL     1      14.191 -19.197   5.052  1.00  0.00    +0.017 A 
BRANCH  24  25
ATOM     25  C   UNL     1      13.178 -18.173   5.443  1.00  0.00    +0.159 C 
ATOM     26  O   UNL     1      12.675 -18.206   6.565  1.00  0.00    -0.295 OA
ATOM     27  C   UNL     1      12.789 -17.112   4.447  1.00  0.00    +0.093 C 
ENDBRANCH  24  25
ENDBRANCH  16  19
ENDBRANCH   5  15
TORSDOF 6
ENDMDL
MODEL 6
REMARK VINA RESULT:    -7.349      2.505      4.379
REMARK INTER + INTRA:         -11.119
REMARK INTER:                 -10.378
REMARK INTRA:                  -0.741
REMARK UNBOUND:                -1.192
REMARK SMILES CCOC(=O)NC(=O)c1ccsc1NC(=O)c1ccc(C(C)=O)cc1
REMARK SMILES IDX 9 1 10 2 11 3 12 4 13 5 7 6 4 7 5 8 6 9 8 10 3 12 2 13 1 14
REMARK SMILES IDX 14 15 15 16 16 17 17 19 18 20 25 21 19 22 24 23 20 24 21 25
REMARK SMILES IDX 23 26 22 27
REMARK H PARENT 6 11 14 18
ROOT
ATOM      1  C   UNL     1      18.324 -22.019  -0.146  1.00  0.00    +0.075 A 
ATOM      2  C   UNL     1      18.911 -22.446  -1.392  1.00  0.00    +0.028 A 
ATOM      3  C   UNL     1      18.474 -21.707  -2.468  1.00  0.00    +0.068 A 
ATOM      4  S   UNL     1      17.358 -20.510  -2.002  1.00  0.00    -0.126 S 
ATOM      5  C   UNL     1      17.449 -20.957  -0.367  1.00  0.00    +0.108 A 
ENDROOT
BRANCH   1   6
ATOM      6  C   UNL     1      18.546 -22.571   1.202  1.00  0.00    +0.263 C 
ATOM      7  C   UNL     1      18.121 -24.542   2.563  1.00  0.00    +0.414 C 
ATOM      8  O   UNL     1      18.578 -24.173   3.631  1.00  0.00    -0.224 OA
ATOM      9  N   UNL     1      18.038 -23.834   1.400  1.00  0.00    -0.257 N 
ATOM     10  O   UNL     1      19.159 -21.924   2.046  1.00  0.00    -0.269 OA
ATOM     11  H   UNL     1      17.615 -24.341   0.645  1.00  0.00    +0.176 HD
BRANCH   7  12
ATOM     12  O   UNL     1      17.577 -25.768   2.342  1.00  0.00    -0.450 OA
BRANCH  12  13
ATOM     13  C   UNL     1      17.544 -26.203   0.973  1.00  0.00    +0.231 C 
ATOM     14  C   UNL     1      17.774 -27.701   0.893  1.00  0.00    +0.049 C 
ENDBRANCH  12  13
ENDBRANCH   7  12
ENDBRANCH   1   6
BRANCH   5  15
ATOM     15  N   UNL     1      16.697 -20.314   0.606  1.00  0.00    -0.313 N 
ATOM     16  C   UNL     1      16.432 -18.963   0.713  1.00  0.00    +0.256 C 
ATOM     17  O   UNL     1      16.869 -18.061   0.009  1.00  0.00    -0.269 OA
ATOM     18  H   UNL     1      16.353 -20.936   1.338  1.00  0.00    +0.171 HD
BRANCH  16  19
ATOM     19  C   UNL     1      15.538 -18.584   1.850  1.00  0.00    +0.040 A 
ATOM     20  C   UNL     1      15.465 -19.331   3.033  1.00  0.00    +0.014 A 
ATOM     21  C   UNL     1      14.722 -17.454   1.703  1.00  0.00    +0.014 A 
ATOM     22  C   UNL     1      14.602 -18.932   4.061  1.00  0.00    +0.012 A 
ATOM     23  C   UNL     1      13.858 -17.056   2.730  1.00  0.00    +0.012 A 
ATOM     24  C   UNL     1      13.795 -17.793   3.918  1.00  0.00    +0.017 A 
BRANCH  24  25
ATOM     25  C   UNL     1      12.890 -17.416   5.044  1.00  0.00    +0.159 C 
ATOM     26  O   UNL     1      12.209 -16.395   4.965  1.00  0.00    -0.295 OA
ATOM     27  C   UNL     1      12.831 -18.299   6.263  1.00  0.00    +0.093 C 
ENDBRANCH  24  25
ENDBRANCH  16  19
ENDBRANCH   5  15
TORSDOF 6
ENDMDL
MODEL 7
REMARK VINA RESULT:    -7.346      3.078      6.427
REMARK INTER + INTRA:         -11.115
REMARK INTER:                 -10.752
REMARK INTRA:                  -0.363
REMARK UNBOUND:                -1.192
REMARK SMILES CCOC(=O)NC(=O)c1ccsc1NC(=O)c1ccc(C(C)=O)cc1
REMARK SMILES IDX 9 1 10 2 11 3 12 4 13 5 7 6 4 7 5 8 6 9 8 10 3 12 2 13 1 14
REMARK SMILES IDX 14 15 15 16 16 17 17 19 18 20 25 21 19 22 24 23 20 24 21 25
REMARK SMILES IDX 23 26 22 27
REMARK H PARENT 6 11 14 18
ROOT
ATOM      1  C   UNL     1      14.377 -17.719   2.819  1.00  0.00    +0.075 A 
ATOM      2  C   UNL     1      13.284 -16.857   3.197  1.00  0.00    +0.028 A 
ATOM      3  C   UNL     1      12.827 -17.105   4.472  1.00  0.00    +0.068 A 
ATOM      4  S   UNL     1      13.689 -18.368   5.219  1.00  0.00    -0.126 S 
ATOM      5  C   UNL     1      14.679 -18.595   3.860  1.00  0.00    +0.108 A 
ENDROOT
BRANCH   1   6
ATOM      6  C   UNL     1      15.112 -17.751   1.541  1.00  0.00    +0.263 C 
ATOM      7  C   UNL     1      16.060 -19.286  -0.089  1.00  0.00    +0.414 C 
ATOM      8  O   UNL     1      16.585 -18.495  -0.854  1.00  0.00    -0.224 OA
ATOM      9  N   UNL     1      15.392 -19.011   1.067  1.00  0.00    -0.257 N 
ATOM     10  O   UNL     1      15.415 -16.706   0.972  1.00  0.00    -0.269 OA
ATOM     11  H   UNL     1      15.048 -19.826   1.541  1.00  0.00    +0.176 HD
BRANCH   7  12
ATOM     12  O   UNL     1      16.068 -20.636  -0.255  1.00  0.00    -0.450 OA
BRANCH  12  13
ATOM     13  C   UNL     1      16.504 -21.107  -1.540  1.00  0.00    +0.231 C 
ATOM     14  C   UNL     1      15.327 -21.663  -2.320  1.00  0.00    +0.049 C 
ENDBRANCH  12  13
ENDBRANCH   7  12
ENDBRANCH   1   6
BRANCH   5  15
ATOM     15  N   UNL     1      15.662 -19.574   3.831  1.00  0.00    -0.313 N 
ATOM     16  C   UNL     1      15.541 -20.902   4.190  1.00  0.00    +0.256 C 
ATOM     17  O   UNL     1      14.561 -21.458   4.672  1.00  0.00    -0.269 OA
ATOM     18  H   UNL     1      16.580 -19.228   3.551  1.00  0.00    +0.171 HD
BRANCH  16  19
ATOM     19  C   UNL     1      16.776 -21.723   3.993  1.00  0.00    +0.040 A 
ATOM     20  C   UNL     1      17.173 -22.716   4.897  1.00  0.00    +0.014 A 
ATOM     21  C   UNL     1      17.575 -21.459   2.872  1.00  0.00    +0.014 A 
ATOM     22  C   UNL     1      18.344 -23.448   4.665  1.00  0.00    +0.012 A 
ATOM     23  C   UNL     1      18.747 -22.188   2.640  1.00  0.00    +0.012 A 
ATOM     24  C   UNL     1      19.137 -23.191   3.536  1.00  0.00    +0.017 A 
BRANCH  24  25
ATOM     25  C   UNL     1      20.377 -23.998   3.339  1.00  0.00    +0.159 C 
ATOM     26  O   UNL     1      20.455 -24.780   2.392  1.00  0.00    -0.295 OA
ATOM     27  C   UNL     1      21.517 -23.837   4.311  1.00  0.00    +0.093 C 
ENDBRANCH  24  25
ENDBRANCH  16  19
ENDBRANCH   5  15
TORSDOF 6
ENDMDL
MODEL 8
REMARK VINA RESULT:    -7.324      2.390      3.819
REMARK INTER + INTRA:         -11.084
REMARK INTER:                 -10.009
REMARK INTRA:                  -1.075
REMARK UNBOUND:                -1.192
REMARK SMILES CCOC(=O)NC(=O)c1ccsc1NC(=O)c1ccc(C(C)=O)cc1
REMARK SMILES IDX 9 1 10 2 11 3 12 4 13 5 7 6 4 7 5 8 6 9 8 10 3 12 2 13 1 14
REMARK SMILES IDX 14 15 15 16 16 17 17 19 18 20 25 21 19 22 24 23 20 24 21 25
REMARK SMILES IDX 23 26 22 27
REMARK H PARENT 6 11 14 18
ROOT
ATOM      1  C   UNL     1      17.531 -22.191  -0.891  1.00  0.00    +0.075 A 
ATOM      2  C   UNL     1      18.208 -22.356  -2.154  1.00  0.00    +0.028 A 
ATOM      3  C   UNL     1      18.320 -21.178  -2.857  1.00  0.00    +0.068 A 
ATOM      4  S   UNL     1      17.610 -19.874  -2.024  1.00  0.00    -0.126 S 
ATOM      5  C   UNL     1      17.154 -20.860  -0.720  1.00  0.00    +0.108 A 
ENDROOT
BRANCH   1   6
ATOM      6  C   UNL     1      17.225 -23.218   0.120  1.00  0.00    +0.263 C 
ATOM      7  C   UNL     1      18.252 -24.541   1.884  1.00  0.00    +0.414 C 
ATOM      8  O   UNL     1      17.308 -25.238   2.213  1.00  0.00    -0.224 OA
ATOM      9  N   UNL     1      18.296 -23.608   0.891  1.00  0.00    -0.257 N 
ATOM     10  O   UNL     1      16.083 -23.651   0.241  1.00  0.00    -0.269 OA
ATOM     11  H   UNL     1      19.188 -23.158   0.795  1.00  0.00    +0.176 HD
BRANCH   7  12
ATOM     12  O   UNL     1      19.482 -24.590   2.462  1.00  0.00    -0.450 OA
BRANCH  12  13
ATOM     13  C   UNL     1      19.819 -23.483   3.314  1.00  0.00    +0.231 C 
ATOM     14  C   UNL     1      20.947 -23.869   4.253  1.00  0.00    +0.049 C 
ENDBRANCH  12  13
ENDBRANCH   7  12
ENDBRANCH   1   6
BRANCH   5  15
ATOM     15  N   UNL     1      16.465 -20.350   0.371  1.00  0.00    -0.313 N 
ATOM     16  C   UNL     1      16.932 -20.176   1.659  1.00  0.00    +0.256 C 
ATOM     17  O   UNL     1      18.025 -20.503   2.105  1.00  0.00    -0.269 OA
ATOM     18  H   UNL     1      15.488 -20.132   0.175  1.00  0.00    +0.171 HD
BRANCH  16  19
ATOM     19  C   UNL     1      15.958 -19.547   2.603  1.00  0.00    +0.040 A 
ATOM     20  C   UNL     1      15.800 -19.982   3.925  1.00  0.00    +0.014 A 
ATOM     21  C   UNL     1      15.153 -18.502   2.127  1.00  0.00    +0.014 A 
ATOM     22  C   UNL     1      14.866 -19.361   4.761  1.00  0.00    +0.012 A 
ATOM     23  C   UNL     1      14.217 -17.881   2.962  1.00  0.00    +0.012 A 
ATOM     24  C   UNL     1      14.070 -18.306   4.288  1.00  0.00    +0.017 A 
BRANCH  24  25
ATOM     25  C   UNL     1      13.087 -17.682   5.221  1.00  0.00    +0.159 C 
ATOM     26  O   UNL     1      13.138 -17.934   6.423  1.00  0.00    -0.295 OA
ATOM     27  C   UNL     1      12.043 -16.748   4.665  1.00  0.00    +0.093 C 
ENDBRANCH  24  25
ENDBRANCH  16  19
ENDBRANCH   5  15
TORSDOF 6
ENDMDL
MODEL 9
REMARK VINA RESULT:    -7.085      2.370      2.858
REMARK INTER + INTRA:         -10.762
REMARK INTER:                  -9.765
REMARK INTRA:                  -0.997
REMARK UNBOUND:                -1.192
REMARK SMILES CCOC(=O)NC(=O)c1ccsc1NC(=O)c1ccc(C(C)=O)cc1
REMARK SMILES IDX 9 1 10 2 11 3 12 4 13 5 7 6 4 7 5 8 6 9 8 10 3 12 2 13 1 14
REMARK SMILES IDX 14 15 15 16 16 17 17 19 18 20 25 21 19 22 24 23 20 24 21 25
REMARK SMILES IDX 23 26 22 27
REMARK H PARENT 6 11 14 18
ROOT
ATOM      1  C   UNL     1      19.414 -22.305   0.472  1.00  0.00    +0.075 A 
ATOM      2  C   UNL     1      20.632 -23.047   0.257  1.00  0.00    +0.028 A 
ATOM      3  C   UNL     1      21.251 -23.409   1.433  1.00  0.00    +0.068 A 
ATOM      4  S   UNL     1      20.392 -22.859   2.795  1.00  0.00    -0.126 S 
ATOM      5  C   UNL     1      19.188 -22.141   1.838  1.00  0.00    +0.108 A 
ENDROOT
BRANCH   1   6
ATOM      6  C   UNL     1      18.494 -21.751  -0.537  1.00  0.00    +0.263 C 
ATOM      7  C   UNL     1      18.417 -20.963  -2.837  1.00  0.00    +0.414 C 
ATOM      8  O   UNL     1      17.260 -20.587  -2.900  1.00  0.00    -0.224 OA
ATOM      9  N   UNL     1      19.070 -21.479  -1.756  1.00  0.00    -0.257 N 
ATOM     10  O   UNL     1      17.308 -21.580  -0.270  1.00  0.00    -0.269 OA
ATOM     11  H   UNL     1      20.028 -21.715  -1.936  1.00  0.00    +0.176 HD
BRANCH   7  12
ATOM     12  O   UNL     1      19.299 -20.914  -3.871  1.00  0.00    -0.450 OA
BRANCH  12  13
ATOM     13  C   UNL     1      20.287 -21.957  -3.902  1.00  0.00    +0.231 C 
ATOM     14  C   UNL     1      21.480 -21.524  -4.735  1.00  0.00    +0.049 C 
ENDBRANCH  12  13
ENDBRANCH   7  12
ENDBRANCH   1   6
BRANCH   5  15
ATOM     15  N   UNL     1      18.120 -21.458   2.403  1.00  0.00    -0.313 N 
ATOM     16  C   UNL     1      17.032 -21.992   3.065  1.00  0.00    +0.256 C 
ATOM     17  O   UNL     1      16.762 -23.176   3.220  1.00  0.00    -0.269 OA
ATOM     18  H   UNL     1      18.151 -20.449   2.253  1.00  0.00    +0.171 HD
BRANCH  16  19
ATOM     19  C   UNL     1      16.071 -20.985   3.611  1.00  0.00    +0.040 A 
ATOM     20  C   UNL     1      15.804 -19.770   2.967  1.00  0.00    +0.014 A 
ATOM     21  C   UNL     1      15.442 -21.264   4.833  1.00  0.00    +0.014 A 
ATOM     22  C   UNL     1      14.901 -18.861   3.531  1.00  0.00    +0.012 A 
ATOM     23  C   UNL     1      14.539 -20.355   5.397  1.00  0.00    +0.012 A 
ATOM     24  C   UNL     1      14.261 -19.147   4.746  1.00  0.00    +0.017 A 
BRANCH  24  25
ATOM     25  C   UNL     1      13.310 -18.142   5.305  1.00  0.00    +0.159 C 
ATOM     26  O   UNL     1      12.994 -18.192   6.492  1.00  0.00    -0.295 OA
ATOM     27  C   UNL     1      12.752 -17.079   4.395  1.00  0.00    +0.093 C 
ENDBRANCH  24  25
ENDBRANCH  16  19
ENDBRANCH   5  15
TORSDOF 6
ENDMDL
