MODEL 1
REMARK VINA RESULT:    -9.249      0.000      0.000
REMARK INTER + INTRA:         -13.101
REMARK INTER:                 -12.223
REMARK INTRA:                  -0.877
REMARK UNBOUND:                -0.877
REMARK SMILES N#Cc1ccc(CNc2nc3cc(C(F)(F)F)ccc3nc2C(=O)O)cc1
REMARK SMILES IDX 9 1 10 2 11 3 12 4 13 5 18 6 19 7 20 8 21 9 22 10 8 11 7 13
REMARK SMILES IDX 6 14 1 15 2 16 3 17 4 18 27 19 5 20 26 21 23 22 24 23 25 24
REMARK SMILES IDX 14 26 15 27 16 28 17 29
REMARK H PARENT 8 12 25 25
ROOT
ATOM      1  C   UNL     1      17.020 -19.876   1.027  1.00  0.00    +0.160 A 
ATOM      2  N   UNL     1      16.440 -19.909   2.251  1.00  0.00    -0.227 NA
ATOM      3  C   UNL     1      15.548 -18.947   2.555  1.00  0.00    +0.092 A 
ATOM      4  C   UNL     1      14.934 -18.954   3.801  1.00  0.00    +0.043 A 
ATOM      5  C   UNL     1      13.988 -17.982   4.167  1.00  0.00    +0.058 A 
ATOM      6  C   UNL     1      13.677 -16.977   3.248  1.00  0.00    +0.015 A 
ATOM      7  C   UNL     1      14.292 -16.963   1.993  1.00  0.00    +0.031 A 
ATOM      8  C   UNL     1      15.221 -17.930   1.632  1.00  0.00    +0.090 A 
ATOM      9  N   UNL     1      15.794 -17.879   0.421  1.00  0.00    -0.236 NA
ATOM     10  C   UNL     1      16.709 -18.850   0.124  1.00  0.00    +0.191 A 
ENDROOT
BRANCH   1  11
ATOM     11  N   UNL     1      17.906 -20.934   0.817  1.00  0.00    -0.364 N 
ATOM     12  H   UNL     1      18.768 -20.482   0.507  1.00  0.00    +0.162 HD
BRANCH  11  13
ATOM     13  C   UNL     1      18.205 -21.674   2.042  1.00  0.00    +0.150 C 
BRANCH  13  14
ATOM     14  C   UNL     1      17.967 -23.146   1.790  1.00  0.00    -0.029 A 
ATOM     15  N   UNL     1      17.104 -28.414   0.945  1.00  0.00    -0.192 NA
ATOM     16  C   UNL     1      17.289 -27.283   1.131  1.00  0.00    +0.099 C 
ATOM     17  C   UNL     1      17.518 -25.886   1.355  1.00  0.00    +0.052 A 
ATOM     18  C   UNL     1      17.238 -24.959   0.346  1.00  0.00    +0.020 A 
ATOM     19  C   UNL     1      18.019 -25.445   2.583  1.00  0.00    +0.020 A 
ATOM     20  C   UNL     1      17.459 -23.595   0.563  1.00  0.00    +0.007 A 
ATOM     21  C   UNL     1      18.240 -24.082   2.798  1.00  0.00    +0.007 A 
ENDBRANCH  13  14
ENDBRANCH  11  13
ENDBRANCH   1  11
BRANCH  10  22
ATOM     22  C   UNL     1      17.398 -18.713  -1.201  1.00  0.00    +0.358 C 
ATOM     23  O   UNL     1      18.116 -17.812  -1.594  1.00  0.00    -0.244 OA
BRANCH  22  24
ATOM     24  O   UNL     1      17.150 -19.765  -2.015  1.00  0.00    -0.476 OA
ATOM     25  H   UNL     1      16.636 -19.385  -2.757  1.00  0.00    +0.297 HD
ENDBRANCH  22  24
ENDBRANCH  10  22
BRANCH   5  26
ATOM     26  C   UNL     1      13.358 -18.011   5.537  1.00  0.00    +0.416 C 
ATOM     27  F   UNL     1      12.721 -16.846   5.835  1.00  0.00    -0.166 F 
ATOM     28  F   UNL     1      12.428 -18.996   5.678  1.00  0.00    -0.166 F 
ATOM     29  F   UNL     1      14.265 -18.210   6.533  1.00  0.00    -0.166 F 
ENDBRANCH   5  26
TORSDOF 6
ENDMDL
MODEL 2
REMARK VINA RESULT:    -9.203      2.010      2.653
REMARK INTER + INTRA:         -13.040
REMARK INTER:                 -12.148
REMARK INTRA:                  -0.892
REMARK UNBOUND:                -0.877
REMARK SMILES N#Cc1ccc(CNc2nc3cc(C(F)(F)F)ccc3nc2C(=O)O)cc1
REMARK SMILES IDX 9 1 10 2 11 3 12 4 13 5 18 6 19 7 20 8 21 9 22 10 8 11 7 13
REMARK SMILES IDX 6 14 1 15 2 16 3 17 4 18 27 19 5 20 26 21 23 22 24 23 25 24
REMARK SMILES IDX 14 26 15 27 16 28 17 29
REMARK H PARENT 8 12 25 25
ROOT
ATOM      1  C   UNL     1      16.769 -20.020   1.131  1.00  0.00    +0.160 A 
ATOM      2  N   UNL     1      16.162 -19.991   2.342  1.00  0.00    -0.227 NA
ATOM      3  C   UNL     1      15.341 -18.959   2.614  1.00  0.00    +0.092 A 
ATOM      4  C   UNL     1      14.702 -18.900   3.847  1.00  0.00    +0.043 A 
ATOM      5  C   UNL     1      13.827 -17.854   4.179  1.00  0.00    +0.058 A 
ATOM      6  C   UNL     1      13.613 -16.842   3.240  1.00  0.00    +0.015 A 
ATOM      7  C   UNL     1      14.253 -16.893   1.998  1.00  0.00    +0.031 A 
ATOM      8  C   UNL     1      15.112 -17.934   1.671  1.00  0.00    +0.090 A 
ATOM      9  N   UNL     1      15.712 -17.945   0.471  1.00  0.00    -0.236 NA
ATOM     10  C   UNL     1      16.556 -18.988   0.207  1.00  0.00    +0.191 A 
ENDROOT
BRANCH   1  11
ATOM     11  N   UNL     1      17.575 -21.146   0.954  1.00  0.00    -0.364 N 
ATOM     12  H   UNL     1      18.509 -20.829   1.215  1.00  0.00    +0.162 HD
BRANCH  11  13
ATOM     13  C   UNL     1      17.211 -22.249   1.843  1.00  0.00    +0.150 C 
BRANCH  13  14
ATOM     14  C   UNL     1      18.471 -22.807   2.464  1.00  0.00    -0.029 A 
ATOM     15  N   UNL     1      23.006 -24.757   4.664  1.00  0.00    -0.192 NA
ATOM     16  C   UNL     1      22.035 -24.335   4.189  1.00  0.00    +0.099 C 
ATOM     17  C   UNL     1      20.832 -23.818   3.606  1.00  0.00    +0.052 A 
ATOM     18  C   UNL     1      19.599 -24.039   4.228  1.00  0.00    +0.020 A 
ATOM     19  C   UNL     1      20.887 -23.089   2.415  1.00  0.00    +0.020 A 
ATOM     20  C   UNL     1      18.425 -23.534   3.662  1.00  0.00    +0.007 A 
ATOM     21  C   UNL     1      19.712 -22.586   1.849  1.00  0.00    +0.007 A 
ENDBRANCH  13  14
ENDBRANCH  11  13
ENDBRANCH   1  11
BRANCH  10  22
ATOM     22  C   UNL     1      17.280 -18.924  -1.104  1.00  0.00    +0.358 C 
ATOM     23  O   UNL     1      18.027 -18.055  -1.517  1.00  0.00    -0.244 OA
BRANCH  22  24
ATOM     24  O   UNL     1      17.030 -20.005  -1.877  1.00  0.00    -0.476 OA
ATOM     25  H   UNL     1      17.876 -20.175  -2.341  1.00  0.00    +0.297 HD
ENDBRANCH  22  24
ENDBRANCH  10  22
BRANCH   5  26
ATOM     26  C   UNL     1      13.168 -17.813   5.535  1.00  0.00    +0.416 C 
ATOM     27  F   UNL     1      12.076 -18.620   5.601  1.00  0.00    -0.166 F 
ATOM     28  F   UNL     1      13.993 -18.211   6.543  1.00  0.00    -0.166 F 
ATOM     29  F   UNL     1      12.738 -16.567   5.877  1.00  0.00    -0.166 F 
ENDBRANCH   5  26
TORSDOF 6
ENDMDL
MODEL 3
REMARK VINA RESULT:    -8.963      2.508      3.037
REMARK INTER + INTRA:         -12.723
REMARK INTER:                 -11.833
REMARK INTRA:                  -0.890
REMARK UNBOUND:                -0.877
REMARK SMILES N#Cc1ccc(CNc2nc3cc(C(F)(F)F)ccc3nc2C(=O)O)cc1
REMARK SMILES IDX 9 1 10 2 11 3 12 4 13 5 18 6 19 7 20 8 21 9 22 10 8 11 7 13
REMARK SMILES IDX 6 14 1 15 2 16 3 17 4 18 27 19 5 20 26 21 23 22 24 23 25 24
REMARK SMILES IDX 14 26 15 27 16 28 17 29
REMARK H PARENT 8 12 25 25
ROOT
ATOM      1  C   UNL     1      16.807 -19.984   1.084  1.00  0.00    +0.160 A 
ATOM      2  N   UNL     1      16.204 -19.978   2.298  1.00  0.00    -0.227 NA
ATOM      3  C   UNL     1      15.377 -18.956   2.589  1.00  0.00    +0.092 A 
ATOM      4  C   UNL     1      14.743 -18.922   3.825  1.00  0.00    +0.043 A 
ATOM      5  C   UNL     1      13.862 -17.887   4.177  1.00  0.00    +0.058 A 
ATOM      6  C   UNL     1      13.638 -16.861   3.255  1.00  0.00    +0.015 A 
ATOM      7  C   UNL     1      14.274 -16.888   2.011  1.00  0.00    +0.031 A 
ATOM      8  C   UNL     1      15.139 -17.918   1.664  1.00  0.00    +0.090 A 
ATOM      9  N   UNL     1      15.735 -17.906   0.462  1.00  0.00    -0.236 NA
ATOM     10  C   UNL     1      16.585 -18.938   0.178  1.00  0.00    +0.191 A 
ENDROOT
BRANCH   1  11
ATOM     11  N   UNL     1      17.619 -21.102   0.886  1.00  0.00    -0.364 N 
ATOM     12  H   UNL     1      17.893 -21.043  -0.096  1.00  0.00    +0.162 HD
BRANCH  11  13
ATOM     13  C   UNL     1      18.838 -21.067   1.694  1.00  0.00    +0.150 C 
BRANCH  13  14
ATOM     14  C   UNL     1      19.915 -21.852   0.981  1.00  0.00    -0.029 A 
ATOM     15  N   UNL     1      23.753 -24.632  -1.617  1.00  0.00    -0.192 NA
ATOM     16  C   UNL     1      22.928 -24.033  -1.063  1.00  0.00    +0.099 C 
ATOM     17  C   UNL     1      21.910 -23.296  -0.374  1.00  0.00    +0.052 A 
ATOM     18  C   UNL     1      22.064 -22.985   0.981  1.00  0.00    +0.020 A 
ATOM     19  C   UNL     1      20.760 -22.883  -1.054  1.00  0.00    +0.020 A 
ATOM     20  C   UNL     1      21.073 -22.265   1.655  1.00  0.00    +0.007 A 
ATOM     21  C   UNL     1      19.770 -22.164  -0.379  1.00  0.00    +0.007 A 
ENDBRANCH  13  14
ENDBRANCH  11  13
ENDBRANCH   1  11
BRANCH  10  22
ATOM     22  C   UNL     1      17.303 -18.848  -1.134  1.00  0.00    +0.358 C 
ATOM     23  O   UNL     1      18.036 -17.964  -1.539  1.00  0.00    -0.244 OA
BRANCH  22  24
ATOM     24  O   UNL     1      17.068 -19.925  -1.919  1.00  0.00    -0.476 OA
ATOM     25  H   UNL     1      16.554 -20.534  -1.351  1.00  0.00    +0.297 HD
ENDBRANCH  22  24
ENDBRANCH  10  22
BRANCH   5  26
ATOM     26  C   UNL     1      13.207 -17.872   5.536  1.00  0.00    +0.416 C 
ATOM     27  F   UNL     1      12.161 -18.738   5.613  1.00  0.00    -0.166 F 
ATOM     28  F   UNL     1      14.057 -18.217   6.543  1.00  0.00    -0.166 F 
ATOM     29  F   UNL     1      12.711 -16.650   5.870  1.00  0.00    -0.166 F 
ENDBRANCH   5  26
TORSDOF 6
ENDMDL
MODEL 4
REMARK VINA RESULT:    -8.923      3.427      4.938
REMARK INTER + INTRA:         -12.669
REMARK INTER:                 -11.825
REMARK INTRA:                  -0.844
REMARK UNBOUND:                -0.877
REMARK SMILES N#Cc1ccc(CNc2nc3cc(C(F)(F)F)ccc3nc2C(=O)O)cc1
REMARK SMILES IDX 9 1 10 2 11 3 12 4 13 5 18 6 19 7 20 8 21 9 22 10 8 11 7 13
REMARK SMILES IDX 6 14 1 15 2 16 3 17 4 18 27 19 5 20 26 21 23 22 24 23 25 24
REMARK SMILES IDX 14 26 15 27 16 28 17 29
REMARK H PARENT 8 12 25 25
ROOT
ATOM      1  C   UNL     1      17.169 -21.506   3.233  1.00  0.00    +0.160 A 
ATOM      2  N   UNL     1      16.186 -20.603   3.003  1.00  0.00    -0.227 NA
ATOM      3  C   UNL     1      15.720 -19.895   4.050  1.00  0.00    +0.092 A 
ATOM      4  C   UNL     1      14.713 -18.959   3.847  1.00  0.00    +0.043 A 
ATOM      5  C   UNL     1      14.199 -18.184   4.900  1.00  0.00    +0.058 A 
ATOM      6  C   UNL     1      14.712 -18.382   6.184  1.00  0.00    +0.015 A 
ATOM      7  C   UNL     1      15.725 -19.322   6.396  1.00  0.00    +0.031 A 
ATOM      8  C   UNL     1      16.236 -20.080   5.350  1.00  0.00    +0.090 A 
ATOM      9  N   UNL     1      17.203 -20.977   5.594  1.00  0.00    -0.236 NA
ATOM     10  C   UNL     1      17.661 -21.704   4.530  1.00  0.00    +0.191 A 
ENDROOT
BRANCH   1  11
ATOM     11  N   UNL     1      17.587 -22.161   2.073  1.00  0.00    -0.364 N 
ATOM     12  H   UNL     1      17.610 -23.147   2.335  1.00  0.00    +0.162 HD
BRANCH  11  13
ATOM     13  C   UNL     1      16.641 -22.014   0.967  1.00  0.00    +0.150 C 
BRANCH  13  14
ATOM     14  C   UNL     1      17.419 -21.875  -0.321  1.00  0.00    -0.029 A 
ATOM     15  N   UNL     1      20.188 -21.319  -4.930  1.00  0.00    -0.192 NA
ATOM     16  C   UNL     1      19.592 -21.434  -3.941  1.00  0.00    +0.099 C 
ATOM     17  C   UNL     1      18.857 -21.582  -2.719  1.00  0.00    +0.052 A 
ATOM     18  C   UNL     1      19.244 -22.543  -1.779  1.00  0.00    +0.020 A 
ATOM     19  C   UNL     1      17.755 -20.763  -2.459  1.00  0.00    +0.020 A 
ATOM     20  C   UNL     1      18.530 -22.688  -0.586  1.00  0.00    +0.007 A 
ATOM     21  C   UNL     1      17.041 -20.909  -1.267  1.00  0.00    +0.007 A 
ENDBRANCH  13  14
ENDBRANCH  11  13
ENDBRANCH   1  11
BRANCH  10  22
ATOM     22  C   UNL     1      18.675 -22.760   4.851  1.00  0.00    +0.358 C 
ATOM     23  O   UNL     1      18.749 -23.897   4.423  1.00  0.00    -0.244 OA
BRANCH  22  24
ATOM     24  O   UNL     1      19.605 -22.322   5.732  1.00  0.00    -0.476 OA
ATOM     25  H   UNL     1      19.679 -23.045   6.389  1.00  0.00    +0.297 HD
ENDBRANCH  22  24
ENDBRANCH  10  22
BRANCH   5  26
ATOM     26  C   UNL     1      13.091 -17.193   4.645  1.00  0.00    +0.416 C 
ATOM     27  F   UNL     1      13.176 -16.632   3.409  1.00  0.00    -0.166 F 
ATOM     28  F   UNL     1      11.849 -17.746   4.723  1.00  0.00    -0.166 F 
ATOM     29  F   UNL     1      13.094 -16.159   5.531  1.00  0.00    -0.166 F 
ENDBRANCH   5  26
TORSDOF 6
ENDMDL
MODEL 5
REMARK VINA RESULT:    -8.584      2.935      3.786
REMARK INTER + INTRA:         -12.222
REMARK INTER:                 -11.230
REMARK INTRA:                  -0.992
REMARK UNBOUND:                -0.877
REMARK SMILES N#Cc1ccc(CNc2nc3cc(C(F)(F)F)ccc3nc2C(=O)O)cc1
REMARK SMILES IDX 9 1 10 2 11 3 12 4 13 5 18 6 19 7 20 8 21 9 22 10 8 11 7 13
REMARK SMILES IDX 6 14 1 15 2 16 3 17 4 18 27 19 5 20 26 21 23 22 24 23 25 24
REMARK SMILES IDX 14 26 15 27 16 28 17 29
REMARK H PARENT 8 12 25 25
ROOT
ATOM      1  C   UNL     1      17.576 -21.351   3.009  1.00  0.00    +0.160 A 
ATOM      2  N   UNL     1      16.646 -20.389   2.795  1.00  0.00    -0.227 NA
ATOM      3  C   UNL     1      15.937 -19.948   3.850  1.00  0.00    +0.092 A 
ATOM      4  C   UNL     1      14.977 -18.960   3.664  1.00  0.00    +0.043 A 
ATOM      5  C   UNL     1      14.216 -18.455   4.731  1.00  0.00    +0.058 A 
ATOM      6  C   UNL     1      14.431 -18.980   6.008  1.00  0.00    +0.015 A 
ATOM      7  C   UNL     1      15.393 -19.974   6.203  1.00  0.00    +0.031 A 
ATOM      8  C   UNL     1      16.149 -20.466   5.147  1.00  0.00    +0.090 A 
ATOM      9  N   UNL     1      17.059 -21.424   5.372  1.00  0.00    -0.236 NA
ATOM     10  C   UNL     1      17.766 -21.879   4.294  1.00  0.00    +0.191 A 
ENDROOT
BRANCH   1  11
ATOM     11  N   UNL     1      18.263 -21.711   1.849  1.00  0.00    -0.364 N 
ATOM     12  H   UNL     1      18.925 -22.424   2.159  1.00  0.00    +0.162 HD
BRANCH  11  13
ATOM     13  C   UNL     1      17.394 -22.315   0.840  1.00  0.00    +0.150 C 
BRANCH  13  14
ATOM     14  C   UNL     1      17.762 -23.774   0.693  1.00  0.00    -0.029 A 
ATOM     15  N   UNL     1      19.127 -28.980   0.199  1.00  0.00    -0.192 NA
ATOM     16  C   UNL     1      18.838 -27.861   0.307  1.00  0.00    +0.099 C 
ATOM     17  C   UNL     1      18.476 -26.480   0.438  1.00  0.00    +0.052 A 
ATOM     18  C   UNL     1      17.129 -26.113   0.520  1.00  0.00    +0.020 A 
ATOM     19  C   UNL     1      19.468 -25.496   0.487  1.00  0.00    +0.020 A 
ATOM     20  C   UNL     1      16.774 -24.767   0.649  1.00  0.00    +0.007 A 
ATOM     21  C   UNL     1      19.111 -24.151   0.615  1.00  0.00    +0.007 A 
ENDBRANCH  13  14
ENDBRANCH  11  13
ENDBRANCH   1  11
BRANCH  10  22
ATOM     22  C   UNL     1      18.709 -23.012   4.564  1.00  0.00    +0.358 C 
ATOM     23  O   UNL     1      18.681 -24.146   4.120  1.00  0.00    -0.244 OA
BRANCH  22  24
ATOM     24  O   UNL     1      19.701 -22.658   5.413  1.00  0.00    -0.476 OA
ATOM     25  H   UNL     1      19.873 -21.716   5.210  1.00  0.00    +0.297 HD
ENDBRANCH  22  24
ENDBRANCH  10  22
BRANCH   5  26
ATOM     26  C   UNL     1      13.169 -17.398   4.487  1.00  0.00    +0.416 C 
ATOM     27  F   UNL     1      13.365 -16.292   5.253  1.00  0.00    -0.166 F 
ATOM     28  F   UNL     1      13.139 -16.962   3.196  1.00  0.00    -0.166 F 
ATOM     29  F   UNL     1      11.908 -17.830   4.763  1.00  0.00    -0.166 F 
ENDBRANCH   5  26
TORSDOF 6
ENDMDL
MODEL 6
REMARK VINA RESULT:    -8.516      3.205      4.464
REMARK INTER + INTRA:         -12.131
REMARK INTER:                 -11.178
REMARK INTRA:                  -0.953
REMARK UNBOUND:                -0.877
REMARK SMILES N#Cc1ccc(CNc2nc3cc(C(F)(F)F)ccc3nc2C(=O)O)cc1
REMARK SMILES IDX 9 1 10 2 11 3 12 4 13 5 18 6 19 7 20 8 21 9 22 10 8 11 7 13
REMARK SMILES IDX 6 14 1 15 2 16 3 17 4 18 27 19 5 20 26 21 23 22 24 23 25 24
REMARK SMILES IDX 14 26 15 27 16 28 17 29
REMARK H PARENT 8 12 25 25
ROOT
ATOM      1  C   UNL     1      17.476 -21.012   2.471  1.00  0.00    +0.160 A 
ATOM      2  N   UNL     1      16.725 -19.926   2.775  1.00  0.00    -0.227 NA
ATOM      3  C   UNL     1      15.791 -20.051   3.737  1.00  0.00    +0.092 A 
ATOM      4  C   UNL     1      15.006 -18.955   4.073  1.00  0.00    +0.043 A 
ATOM      5  C   UNL     1      14.025 -19.026   5.076  1.00  0.00    +0.058 A 
ATOM      6  C   UNL     1      13.834 -20.243   5.735  1.00  0.00    +0.015 A 
ATOM      7  C   UNL     1      14.619 -21.350   5.401  1.00  0.00    +0.031 A 
ATOM      8  C   UNL     1      15.593 -21.274   4.414  1.00  0.00    +0.090 A 
ATOM      9  N   UNL     1      16.323 -22.359   4.118  1.00  0.00    -0.236 NA
ATOM     10  C   UNL     1      17.260 -22.230   3.130  1.00  0.00    +0.191 A 
ENDROOT
BRANCH   1  11
ATOM     11  N   UNL     1      18.425 -20.757   1.480  1.00  0.00    -0.364 N 
ATOM     12  H   UNL     1      18.995 -21.603   1.453  1.00  0.00    +0.162 HD
BRANCH  11  13
ATOM     13  C   UNL     1      17.828 -20.577   0.157  1.00  0.00    +0.150 C 
BRANCH  13  14
ATOM     14  C   UNL     1      18.587 -21.425  -0.837  1.00  0.00    -0.029 A 
ATOM     15  N   UNL     1      21.309 -24.410  -4.429  1.00  0.00    -0.192 NA
ATOM     16  C   UNL     1      20.725 -23.765  -3.660  1.00  0.00    +0.099 C 
ATOM     17  C   UNL     1      20.003 -22.974  -2.708  1.00  0.00    +0.052 A 
ATOM     18  C   UNL     1      20.088 -23.268  -1.343  1.00  0.00    +0.020 A 
ATOM     19  C   UNL     1      19.214 -21.904  -3.139  1.00  0.00    +0.020 A 
ATOM     20  C   UNL     1      19.385 -22.497  -0.412  1.00  0.00    +0.007 A 
ATOM     21  C   UNL     1      18.512 -21.134  -2.208  1.00  0.00    +0.007 A 
ENDBRANCH  13  14
ENDBRANCH  11  13
ENDBRANCH   1  11
BRANCH  10  22
ATOM     22  C   UNL     1      17.994 -23.483   2.761  1.00  0.00    +0.358 C 
ATOM     23  O   UNL     1      17.546 -24.520   2.306  1.00  0.00    -0.244 OA
BRANCH  22  24
ATOM     24  O   UNL     1      19.325 -23.378   2.981  1.00  0.00    -0.476 OA
ATOM     25  H   UNL     1      19.443 -22.476   3.345  1.00  0.00    +0.297 HD
ENDBRANCH  22  24
ENDBRANCH  10  22
BRANCH   5  26
ATOM     26  C   UNL     1      13.178 -17.821   5.399  1.00  0.00    +0.416 C 
ATOM     27  F   UNL     1      13.923 -16.695   5.558  1.00  0.00    -0.166 F 
ATOM     28  F   UNL     1      12.263 -17.534   4.431  1.00  0.00    -0.166 F 
ATOM     29  F   UNL     1      12.467 -17.969   6.550  1.00  0.00    -0.166 F 
ENDBRANCH   5  26
TORSDOF 6
ENDMDL
MODEL 7
REMARK VINA RESULT:    -8.118      3.594      4.348
REMARK INTER + INTRA:         -11.605
REMARK INTER:                 -10.836
REMARK INTRA:                  -0.769
REMARK UNBOUND:                -0.877
REMARK SMILES N#Cc1ccc(CNc2nc3cc(C(F)(F)F)ccc3nc2C(=O)O)cc1
REMARK SMILES IDX 9 1 10 2 11 3 12 4 13 5 18 6 19 7 20 8 21 9 22 10 8 11 7 13
REMARK SMILES IDX 6 14 1 15 2 16 3 17 4 18 27 19 5 20 26 21 23 22 24 23 25 24
REMARK SMILES IDX 14 26 15 27 16 28 17 29
REMARK H PARENT 8 12 25 25
ROOT
ATOM      1  C   UNL     1      17.844 -20.513   0.609  1.00  0.00    +0.160 A 
ATOM      2  N   UNL     1      17.768 -21.144   1.806  1.00  0.00    -0.227 NA
ATOM      3  C   UNL     1      16.869 -20.694   2.703  1.00  0.00    +0.092 A 
ATOM      4  C   UNL     1      16.765 -21.321   3.939  1.00  0.00    +0.043 A 
ATOM      5  C   UNL     1      15.838 -20.901   4.907  1.00  0.00    +0.058 A 
ATOM      6  C   UNL     1      15.014 -19.813   4.611  1.00  0.00    +0.015 A 
ATOM      7  C   UNL     1      15.113 -19.177   3.370  1.00  0.00    +0.031 A 
ATOM      8  C   UNL     1      16.026 -19.600   2.413  1.00  0.00    +0.090 A 
ATOM      9  N   UNL     1      16.096 -18.960   1.236  1.00  0.00    -0.236 NA
ATOM     10  C   UNL     1      17.021 -19.412   0.336  1.00  0.00    +0.191 A 
ENDROOT
BRANCH   1  11
ATOM     11  N   UNL     1      18.791 -21.081  -0.244  1.00  0.00    -0.364 N 
ATOM     12  H   UNL     1      19.511 -21.442   0.384  1.00  0.00    +0.162 HD
BRANCH  11  13
ATOM     13  C   UNL     1      18.261 -22.207  -1.012  1.00  0.00    +0.150 C 
BRANCH  13  14
ATOM     14  C   UNL     1      19.379 -22.803  -1.835  1.00  0.00    -0.029 A 
ATOM     15  N   UNL     1      23.385 -24.882  -4.809  1.00  0.00    -0.192 NA
ATOM     16  C   UNL     1      22.525 -24.431  -4.173  1.00  0.00    +0.099 C 
ATOM     17  C   UNL     1      21.462 -23.881  -3.385  1.00  0.00    +0.052 A 
ATOM     18  C   UNL     1      21.267 -24.314  -2.069  1.00  0.00    +0.020 A 
ATOM     19  C   UNL     1      20.619 -22.906  -3.926  1.00  0.00    +0.020 A 
ATOM     20  C   UNL     1      20.232 -23.777  -1.298  1.00  0.00    +0.007 A 
ATOM     21  C   UNL     1      19.585 -22.370  -3.154  1.00  0.00    +0.007 A 
ENDBRANCH  13  14
ENDBRANCH  11  13
ENDBRANCH   1  11
BRANCH  10  22
ATOM     22  C   UNL     1      17.137 -18.620  -0.932  1.00  0.00    +0.358 C 
ATOM     23  O   UNL     1      18.143 -18.223  -1.490  1.00  0.00    -0.244 OA
BRANCH  22  24
ATOM     24  O   UNL     1      15.928 -18.352  -1.477  1.00  0.00    -0.476 OA
ATOM     25  H   UNL     1      16.134 -17.881  -2.310  1.00  0.00    +0.297 HD
ENDBRANCH  22  24
ENDBRANCH  10  22
BRANCH   5  26
ATOM     26  C   UNL     1      15.769 -21.593   6.245  1.00  0.00    +0.416 C 
ATOM     27  F   UNL     1      16.385 -22.805   6.231  1.00  0.00    -0.166 F 
ATOM     28  F   UNL     1      16.359 -20.882   7.246  1.00  0.00    -0.166 F 
ATOM     29  F   UNL     1      14.492 -21.823   6.656  1.00  0.00    -0.166 F 
ENDBRANCH   5  26
TORSDOF 6
ENDMDL
MODEL 8
REMARK VINA RESULT:    -8.069      1.989      2.371
REMARK INTER + INTRA:         -11.540
REMARK INTER:                 -10.766
REMARK INTRA:                  -0.775
REMARK UNBOUND:                -0.877
REMARK SMILES N#Cc1ccc(CNc2nc3cc(C(F)(F)F)ccc3nc2C(=O)O)cc1
REMARK SMILES IDX 9 1 10 2 11 3 12 4 13 5 18 6 19 7 20 8 21 9 22 10 8 11 7 13
REMARK SMILES IDX 6 14 1 15 2 16 3 17 4 18 27 19 5 20 26 21 23 22 24 23 25 24
REMARK SMILES IDX 14 26 15 27 16 28 17 29
REMARK H PARENT 8 12 25 25
ROOT
ATOM      1  C   UNL     1      17.771 -20.614   0.543  1.00  0.00    +0.160 A 
ATOM      2  N   UNL     1      17.387 -20.884   1.815  1.00  0.00    -0.227 NA
ATOM      3  C   UNL     1      16.454 -20.092   2.376  1.00  0.00    +0.092 A 
ATOM      4  C   UNL     1      16.038 -20.343   3.678  1.00  0.00    +0.043 A 
ATOM      5  C   UNL     1      15.061 -19.557   4.308  1.00  0.00    +0.058 A 
ATOM      6  C   UNL     1      14.511 -18.485   3.601  1.00  0.00    +0.015 A 
ATOM      7  C   UNL     1      14.925 -18.225   2.291  1.00  0.00    +0.031 A 
ATOM      8  C   UNL     1      15.887 -19.010   1.669  1.00  0.00    +0.090 A 
ATOM      9  N   UNL     1      16.263 -18.726   0.413  1.00  0.00    -0.236 NA
ATOM     10  C   UNL     1      17.221 -19.524  -0.146  1.00  0.00    +0.191 A 
ENDROOT
BRANCH   1  11
ATOM     11  N   UNL     1      18.722 -21.514   0.060  1.00  0.00    -0.364 N 
ATOM     12  H   UNL     1      19.159 -21.893   0.902  1.00  0.00    +0.162 HD
BRANCH  11  13
ATOM     13  C   UNL     1      18.126 -22.629  -0.675  1.00  0.00    +0.150 C 
BRANCH  13  14
ATOM     14  C   UNL     1      18.858 -23.899  -0.308  1.00  0.00    -0.029 A 
ATOM     15  N   UNL     1      21.526 -28.413   1.002  1.00  0.00    -0.192 NA
ATOM     16  C   UNL     1      20.958 -27.441   0.720  1.00  0.00    +0.099 C 
ATOM     17  C   UNL     1      20.250 -26.245   0.372  1.00  0.00    +0.052 A 
ATOM     18  C   UNL     1      18.969 -26.013   0.884  1.00  0.00    +0.020 A 
ATOM     19  C   UNL     1      20.838 -25.303  -0.477  1.00  0.00    +0.020 A 
ATOM     20  C   UNL     1      18.277 -24.845   0.548  1.00  0.00    +0.007 A 
ATOM     21  C   UNL     1      20.145 -24.137  -0.813  1.00  0.00    +0.007 A 
ENDBRANCH  13  14
ENDBRANCH  11  13
ENDBRANCH   1  11
BRANCH  10  22
ATOM     22  C   UNL     1      17.685 -19.125  -1.514  1.00  0.00    +0.358 C 
ATOM     23  O   UNL     1      17.751 -19.805  -2.522  1.00  0.00    -0.244 OA
BRANCH  22  24
ATOM     24  O   UNL     1      18.057 -17.825  -1.567  1.00  0.00    -0.476 OA
ATOM     25  H   UNL     1      18.289 -17.675  -2.506  1.00  0.00    +0.297 HD
ENDBRANCH  22  24
ENDBRANCH  10  22
BRANCH   5  26
ATOM     26  C   UNL     1      14.649 -19.848   5.730  1.00  0.00    +0.416 C 
ATOM     27  F   UNL     1      13.611 -19.068   6.136  1.00  0.00    -0.166 F 
ATOM     28  F   UNL     1      14.249 -21.136   5.919  1.00  0.00    -0.166 F 
ATOM     29  F   UNL     1      15.653 -19.636   6.625  1.00  0.00    -0.166 F 
ENDBRANCH   5  26
TORSDOF 6
ENDMDL
MODEL 9
REMARK VINA RESULT:    -7.984      5.303      8.270
REMARK INTER + INTRA:         -11.428
REMARK INTER:                 -10.551
REMARK INTRA:                  -0.877
REMARK UNBOUND:                -0.877
REMARK SMILES N#Cc1ccc(CNc2nc3cc(C(F)(F)F)ccc3nc2C(=O)O)cc1
REMARK SMILES IDX 9 1 10 2 11 3 12 4 13 5 18 6 19 7 20 8 21 9 22 10 8 11 7 13
REMARK SMILES IDX 6 14 1 15 2 16 3 17 4 18 27 19 5 20 26 21 23 22 24 23 25 24
REMARK SMILES IDX 14 26 15 27 16 28 17 29
REMARK H PARENT 8 12 25 25
ROOT
ATOM      1  C   UNL     1      17.592 -21.236  -0.007  1.00  0.00    +0.160 A 
ATOM      2  N   UNL     1      18.231 -22.431   0.019  1.00  0.00    -0.227 NA
ATOM      3  C   UNL     1      19.219 -22.641  -0.872  1.00  0.00    +0.092 A 
ATOM      4  C   UNL     1      19.895 -23.855  -0.870  1.00  0.00    +0.043 A 
ATOM      5  C   UNL     1      20.941 -24.122  -1.768  1.00  0.00    +0.058 A 
ATOM      6  C   UNL     1      21.291 -23.137  -2.694  1.00  0.00    +0.015 A 
ATOM      7  C   UNL     1      20.615 -21.913  -2.703  1.00  0.00    +0.031 A 
ATOM      8  C   UNL     1      19.586 -21.650  -1.808  1.00  0.00    +0.090 A 
ATOM      9  N   UNL     1      18.957 -20.466  -1.851  1.00  0.00    -0.236 NA
ATOM     10  C   UNL     1      17.945 -20.266  -0.955  1.00  0.00    +0.191 A 
ENDROOT
BRANCH   1  11
ATOM     11  N   UNL     1      16.606 -21.126   0.974  1.00  0.00    -0.364 N 
ATOM     12  H   UNL     1      16.048 -21.974   0.866  1.00  0.00    +0.162 HD
BRANCH  11  13
ATOM     13  C   UNL     1      17.154 -21.121   2.330  1.00  0.00    +0.150 C 
BRANCH  13  14
ATOM     14  C   UNL     1      16.156 -20.462   3.254  1.00  0.00    -0.029 A 
ATOM     15  N   UNL     1      12.560 -18.082   6.513  1.00  0.00    -0.192 NA
ATOM     16  C   UNL     1      13.330 -18.591   5.809  1.00  0.00    +0.099 C 
ATOM     17  C   UNL     1      14.285 -19.222   4.946  1.00  0.00    +0.052 A 
ATOM     18  C   UNL     1      14.847 -20.452   5.301  1.00  0.00    +0.020 A 
ATOM     19  C   UNL     1      14.654 -18.612   3.744  1.00  0.00    +0.020 A 
ATOM     20  C   UNL     1      15.776 -21.070   4.459  1.00  0.00    +0.007 A 
ATOM     21  C   UNL     1      15.583 -19.230   2.903  1.00  0.00    +0.007 A 
ENDBRANCH  13  14
ENDBRANCH  11  13
ENDBRANCH   1  11
BRANCH  10  22
ATOM     22  C   UNL     1      17.203 -18.970  -1.089  1.00  0.00    +0.358 C 
ATOM     23  O   UNL     1      16.264 -18.561  -0.431  1.00  0.00    -0.244 OA
BRANCH  22  24
ATOM     24  O   UNL     1      17.697 -18.201  -2.087  1.00  0.00    -0.476 OA
ATOM     25  H   UNL     1      17.371 -18.625  -2.907  1.00  0.00    +0.297 HD
ENDBRANCH  22  24
ENDBRANCH  10  22
BRANCH   5  26
ATOM     26  C   UNL     1      21.637 -25.460  -1.749  1.00  0.00    +0.416 C 
ATOM     27  F   UNL     1      22.316 -25.671  -0.590  1.00  0.00    -0.166 F 
ATOM     28  F   UNL     1      20.781 -26.511  -1.883  1.00  0.00    -0.166 F 
ATOM     29  F   UNL     1      22.550 -25.594  -2.750  1.00  0.00    -0.166 F 
ENDBRANCH   5  26
TORSDOF 6
ENDMDL
