MODEL 1
REMARK VINA RESULT:    -8.976      0.000      0.000
REMARK INTER + INTRA:         -13.386
REMARK INTER:                 -11.862
REMARK INTRA:                  -1.525
REMARK UNBOUND:                -1.525
REMARK SMILES CC1(c2ccc(S(N)(=O)=O)cc2)NC(=O)N(CC(=O)c2ccccc2F)C1=O
REMARK SMILES IDX 1 1 2 2 13 3 14 4 15 5 16 6 27 7 28 8 3 10 4 11 12 12 5 13
REMARK SMILES IDX 11 14 6 15 7 16 9 17 10 18 8 19 17 22 18 23 19 24 20 25
REMARK SMILES IDX 21 26 25 27 22 28 24 29 23 30 26 31
REMARK H PARENT 13 9 8 20 8 21
ROOT
ATOM      1  C   UNL     1      18.001 -23.681   4.017  1.00  0.00    +0.051 C 
ATOM      2  C   UNL     1      17.334 -22.910   2.875  1.00  0.00    +0.144 C 
ATOM      3  N   UNL     1      16.572 -23.831   2.052  1.00  0.00    -0.319 N 
ATOM      4  C   UNL     1      17.140 -24.029   0.818  1.00  0.00    +0.325 C 
ATOM      5  O   UNL     1      16.737 -24.846   0.007  1.00  0.00    -0.248 OA
ATOM      6  N   UNL     1      18.196 -23.188   0.683  1.00  0.00    -0.254 N 
ATOM      7  C   UNL     1      18.409 -22.492   1.840  1.00  0.00    +0.261 C 
ATOM      8  O   UNL     1      19.319 -21.692   2.031  1.00  0.00    -0.271 OA
ATOM      9  H   UNL     1      15.851 -24.453   2.389  1.00  0.00    +0.166 HD
ENDROOT
BRANCH   2  10
ATOM     10  C   UNL     1      16.507 -21.726   3.369  1.00  0.00    -0.013 A 
ATOM     11  C   UNL     1      15.677 -21.869   4.500  1.00  0.00    +0.008 A 
ATOM     12  C   UNL     1      16.531 -20.473   2.727  1.00  0.00    +0.008 A 
ATOM     13  C   UNL     1      14.902 -20.808   4.972  1.00  0.00    +0.022 A 
ATOM     14  C   UNL     1      15.757 -19.406   3.195  1.00  0.00    +0.022 A 
ATOM     15  C   UNL     1      14.953 -19.576   4.322  1.00  0.00    +0.082 A 
BRANCH  15  16
ATOM     16  S   UNL     1      13.951 -18.239   4.897  1.00  0.00    +0.238 S 
ATOM     17  O   UNL     1      12.874 -18.764   5.704  1.00  0.00    -0.207 OA
ATOM     18  O   UNL     1      13.724 -17.313   3.812  1.00  0.00    -0.207 OA
BRANCH  16  19
ATOM     19  N   UNL     1      14.988 -17.458   5.960  1.00  0.00    -0.225 NA
ATOM     20  H   UNL     1      15.952 -17.568   5.648  1.00  0.00    +0.137 HD
ATOM     21  H   UNL     1      14.700 -16.485   6.074  1.00  0.00    +0.137 HD
ENDBRANCH  16  19
ENDBRANCH  15  16
ENDBRANCH   2  10
BRANCH   6  22
ATOM     22  C   UNL     1      19.087 -23.181  -0.455  1.00  0.00    +0.211 C 
BRANCH  22  23
ATOM     23  C   UNL     1      18.427 -22.401  -1.591  1.00  0.00    +0.185 C 
ATOM     24  O   UNL     1      18.578 -22.703  -2.777  1.00  0.00    -0.292 OA
BRANCH  23  25
ATOM     25  C   UNL     1      17.573 -21.226  -1.260  1.00  0.00    +0.055 A 
ATOM     26  C   UNL     1      18.200 -20.024  -0.899  1.00  0.00    +0.015 A 
ATOM     27  C   UNL     1      16.179 -21.274  -1.286  1.00  0.00    +0.134 A 
ATOM     28  C   UNL     1      17.439 -18.895  -0.581  1.00  0.00    +0.001 A 
ATOM     29  C   UNL     1      15.416 -20.150  -0.969  1.00  0.00    +0.040 A 
ATOM     30  C   UNL     1      16.047 -18.957  -0.618  1.00  0.00    +0.003 A 
ATOM     31  F   UNL     1      15.524 -22.400  -1.605  1.00  0.00    -0.206 F 
ENDBRANCH  23  25
ENDBRANCH  22  23
ENDBRANCH   6  22
TORSDOF 6
ENDMDL
MODEL 2
REMARK VINA RESULT:    -7.983      3.482      7.248
REMARK INTER + INTRA:         -12.075
REMARK INTER:                 -11.363
REMARK INTRA:                  -0.712
REMARK UNBOUND:                -1.525
REMARK SMILES CC1(c2ccc(S(N)(=O)=O)cc2)NC(=O)N(CC(=O)c2ccccc2F)C1=O
REMARK SMILES IDX 1 1 2 2 13 3 14 4 15 5 16 6 27 7 28 8 3 10 4 11 12 12 5 13
REMARK SMILES IDX 11 14 6 15 7 16 9 17 10 18 8 19 17 22 18 23 19 24 20 25
REMARK SMILES IDX 21 26 25 27 22 28 24 29 23 30 26 31
REMARK H PARENT 13 9 8 20 8 21
ROOT
ATOM      1  C   UNL     1      16.176 -23.556   0.750  1.00  0.00    +0.051 C 
ATOM      2  C   UNL     1      17.341 -22.580   0.936  1.00  0.00    +0.144 C 
ATOM      3  N   UNL     1      18.125 -22.980   2.090  1.00  0.00    -0.319 N 
ATOM      4  C   UNL     1      17.986 -22.116   3.147  1.00  0.00    +0.325 C 
ATOM      5  O   UNL     1      18.460 -22.313   4.254  1.00  0.00    -0.248 OA
ATOM      6  N   UNL     1      17.244 -21.053   2.748  1.00  0.00    -0.254 N 
ATOM      7  C   UNL     1      16.800 -21.228   1.466  1.00  0.00    +0.261 C 
ATOM      8  O   UNL     1      16.072 -20.455   0.854  1.00  0.00    -0.271 OA
ATOM      9  H   UNL     1      18.538 -23.892   2.226  1.00  0.00    +0.166 HD
ENDROOT
BRANCH   2  10
ATOM     10  C   UNL     1      18.180 -22.418  -0.329  1.00  0.00    -0.013 A 
ATOM     11  C   UNL     1      19.586 -22.393  -0.244  1.00  0.00    +0.008 A 
ATOM     12  C   UNL     1      17.596 -22.281  -1.604  1.00  0.00    +0.008 A 
ATOM     13  C   UNL     1      20.382 -22.239  -1.381  1.00  0.00    +0.022 A 
ATOM     14  C   UNL     1      18.387 -22.126  -2.748  1.00  0.00    +0.022 A 
ATOM     15  C   UNL     1      19.777 -22.115  -2.631  1.00  0.00    +0.082 A 
BRANCH  15  16
ATOM     16  S   UNL     1      20.777 -21.888  -4.071  1.00  0.00    +0.238 S 
ATOM     17  O   UNL     1      21.066 -23.176  -4.657  1.00  0.00    -0.207 OA
ATOM     18  O   UNL     1      21.809 -20.919  -3.785  1.00  0.00    -0.207 OA
BRANCH  16  19
ATOM     19  N   UNL     1      19.711 -21.130  -5.121  1.00  0.00    -0.225 NA
ATOM     20  H   UNL     1      19.964 -21.342  -6.086  1.00  0.00    +0.137 HD
ATOM     21  H   UNL     1      18.751 -21.380  -4.881  1.00  0.00    +0.137 HD
ENDBRANCH  16  19
ENDBRANCH  15  16
ENDBRANCH   2  10
BRANCH   6  22
ATOM     22  C   UNL     1      16.820 -19.984   3.624  1.00  0.00    +0.211 C 
BRANCH  22  23
ATOM     23  C   UNL     1      15.444 -20.327   4.190  1.00  0.00    +0.185 C 
ATOM     24  O   UNL     1      15.080 -21.489   4.389  1.00  0.00    -0.292 OA
BRANCH  23  25
ATOM     25  C   UNL     1      14.498 -19.222   4.511  1.00  0.00    +0.055 A 
ATOM     26  C   UNL     1      13.854 -19.233   5.758  1.00  0.00    +0.015 A 
ATOM     27  C   UNL     1      14.221 -18.182   3.623  1.00  0.00    +0.134 A 
ATOM     28  C   UNL     1      12.959 -18.216   6.103  1.00  0.00    +0.001 A 
ATOM     29  C   UNL     1      13.329 -17.165   3.963  1.00  0.00    +0.040 A 
ATOM     30  C   UNL     1      12.697 -17.181   5.206  1.00  0.00    +0.003 A 
ATOM     31  F   UNL     1      14.792 -18.128   2.411  1.00  0.00    -0.206 F 
ENDBRANCH  23  25
ENDBRANCH  22  23
ENDBRANCH   6  22
TORSDOF 6
ENDMDL
MODEL 3
REMARK VINA RESULT:    -7.938      1.708      4.077
REMARK INTER + INTRA:         -12.015
REMARK INTER:                 -10.556
REMARK INTRA:                  -1.459
REMARK UNBOUND:                -1.525
REMARK SMILES CC1(c2ccc(S(N)(=O)=O)cc2)NC(=O)N(CC(=O)c2ccccc2F)C1=O
REMARK SMILES IDX 1 1 2 2 13 3 14 4 15 5 16 6 27 7 28 8 3 10 4 11 12 12 5 13
REMARK SMILES IDX 11 14 6 15 7 16 9 17 10 18 8 19 17 22 18 23 19 24 20 25
REMARK SMILES IDX 21 26 25 27 22 28 24 29 23 30 26 31
REMARK H PARENT 13 9 8 20 8 21
ROOT
ATOM      1  C   UNL     1      17.180 -19.215  -0.968  1.00  0.00    +0.051 C 
ATOM      2  C   UNL     1      17.266 -20.116   0.267  1.00  0.00    +0.144 C 
ATOM      3  N   UNL     1      18.657 -20.298   0.637  1.00  0.00    -0.319 N 
ATOM      4  C   UNL     1      19.106 -21.571   0.388  1.00  0.00    +0.325 C 
ATOM      5  O   UNL     1      20.269 -21.918   0.514  1.00  0.00    -0.248 OA
ATOM      6  N   UNL     1      18.059 -22.333  -0.016  1.00  0.00    -0.254 N 
ATOM      7  C   UNL     1      16.928 -21.574  -0.136  1.00  0.00    +0.261 C 
ATOM      8  O   UNL     1      15.838 -21.979  -0.525  1.00  0.00    -0.271 OA
ATOM      9  H   UNL     1      19.312 -19.552   0.825  1.00  0.00    +0.166 HD
ENDROOT
BRANCH   2  10
ATOM     10  C   UNL     1      16.401 -19.613   1.421  1.00  0.00    -0.013 A 
ATOM     11  C   UNL     1      16.533 -20.188   2.701  1.00  0.00    +0.008 A 
ATOM     12  C   UNL     1      15.453 -18.586   1.256  1.00  0.00    +0.008 A 
ATOM     13  C   UNL     1      15.752 -19.756   3.776  1.00  0.00    +0.022 A 
ATOM     14  C   UNL     1      14.667 -18.148   2.328  1.00  0.00    +0.022 A 
ATOM     15  C   UNL     1      14.828 -18.730   3.585  1.00  0.00    +0.082 A 
BRANCH  15  16
ATOM     16  S   UNL     1      13.815 -18.201   4.934  1.00  0.00    +0.238 S 
ATOM     17  O   UNL     1      13.290 -19.360   5.618  1.00  0.00    -0.207 OA
ATOM     18  O   UNL     1      12.972 -17.112   4.498  1.00  0.00    -0.207 OA
BRANCH  16  19
ATOM     19  N   UNL     1      14.945 -17.522   5.973  1.00  0.00    -0.225 NA
ATOM     20  H   UNL     1      15.229 -18.207   6.672  1.00  0.00    +0.137 HD
ATOM     21  H   UNL     1      15.721 -17.133   5.436  1.00  0.00    +0.137 HD
ENDBRANCH  16  19
ENDBRANCH  15  16
ENDBRANCH   2  10
BRANCH   6  22
ATOM     22  C   UNL     1      18.175 -23.707  -0.450  1.00  0.00    +0.211 C 
BRANCH  22  23
ATOM     23  C   UNL     1      17.743 -24.622   0.695  1.00  0.00    +0.185 C 
ATOM     24  O   UNL     1      17.018 -25.604   0.521  1.00  0.00    -0.292 OA
BRANCH  23  25
ATOM     25  C   UNL     1      18.207 -24.317   2.078  1.00  0.00    +0.055 A 
ATOM     26  C   UNL     1      19.492 -24.731   2.458  1.00  0.00    +0.015 A 
ATOM     27  C   UNL     1      17.416 -23.646   3.010  1.00  0.00    +0.134 A 
ATOM     28  C   UNL     1      19.971 -24.467   3.745  1.00  0.00    +0.001 A 
ATOM     29  C   UNL     1      17.889 -23.380   4.295  1.00  0.00    +0.040 A 
ATOM     30  C   UNL     1      19.170 -23.790   4.663  1.00  0.00    +0.003 A 
ATOM     31  F   UNL     1      16.173 -23.242   2.709  1.00  0.00    -0.206 F 
ENDBRANCH  23  25
ENDBRANCH  22  23
ENDBRANCH   6  22
TORSDOF 6
ENDMDL
MODEL 4
REMARK VINA RESULT:    -7.674      3.770      7.679
REMARK INTER + INTRA:         -11.666
REMARK INTER:                 -10.997
REMARK INTRA:                  -0.669
REMARK UNBOUND:                -1.525
REMARK SMILES CC1(c2ccc(S(N)(=O)=O)cc2)NC(=O)N(CC(=O)c2ccccc2F)C1=O
REMARK SMILES IDX 1 1 2 2 13 3 14 4 15 5 16 6 27 7 28 8 3 10 4 11 12 12 5 13
REMARK SMILES IDX 11 14 6 15 7 16 9 17 10 18 8 19 17 22 18 23 19 24 20 25
REMARK SMILES IDX 21 26 25 27 22 28 24 29 23 30 26 31
REMARK H PARENT 13 9 8 20 8 21
ROOT
ATOM      1  C   UNL     1      15.833 -21.938  -1.294  1.00  0.00    +0.051 C 
ATOM      2  C   UNL     1      17.101 -21.826  -0.443  1.00  0.00    +0.144 C 
ATOM      3  N   UNL     1      16.936 -22.602   0.772  1.00  0.00    -0.319 N 
ATOM      4  C   UNL     1      16.811 -21.812   1.888  1.00  0.00    +0.325 C 
ATOM      5  O   UNL     1      16.550 -22.242   2.999  1.00  0.00    -0.248 OA
ATOM      6  N   UNL     1      17.012 -20.518   1.533  1.00  0.00    -0.254 N 
ATOM      7  C   UNL     1      17.179 -20.410   0.180  1.00  0.00    +0.261 C 
ATOM      8  O   UNL     1      17.334 -19.361  -0.435  1.00  0.00    -0.271 OA
ATOM      9  H   UNL     1      16.696 -23.582   0.810  1.00  0.00    +0.166 HD
ENDROOT
BRANCH   2  10
ATOM     10  C   UNL     1      18.363 -22.193  -1.220  1.00  0.00    -0.013 A 
ATOM     11  C   UNL     1      18.413 -22.001  -2.615  1.00  0.00    +0.008 A 
ATOM     12  C   UNL     1      19.501 -22.735  -0.590  1.00  0.00    +0.008 A 
ATOM     13  C   UNL     1      19.550 -22.333  -3.355  1.00  0.00    +0.022 A 
ATOM     14  C   UNL     1      20.643 -23.070  -1.325  1.00  0.00    +0.022 A 
ATOM     15  C   UNL     1      20.665 -22.859  -2.704  1.00  0.00    +0.082 A 
BRANCH  15  16
ATOM     16  S   UNL     1      22.095 -23.310  -3.639  1.00  0.00    +0.238 S 
ATOM     17  O   UNL     1      23.049 -23.954  -2.768  1.00  0.00    -0.207 OA
ATOM     18  O   UNL     1      22.458 -22.218  -4.512  1.00  0.00    -0.207 OA
BRANCH  16  19
ATOM     19  N   UNL     1      21.492 -24.516  -4.638  1.00  0.00    -0.225 NA
ATOM     20  H   UNL     1      22.248 -25.132  -4.935  1.00  0.00    +0.137 HD
ATOM     21  H   UNL     1      20.724 -25.001  -4.172  1.00  0.00    +0.137 HD
ENDBRANCH  16  19
ENDBRANCH  15  16
ENDBRANCH   2  10
BRANCH   6  22
ATOM     22  C   UNL     1      16.870 -19.398   2.435  1.00  0.00    +0.211 C 
BRANCH  22  23
ATOM     23  C   UNL     1      15.431 -18.890   2.367  1.00  0.00    +0.185 C 
ATOM     24  O   UNL     1      14.892 -18.565   1.306  1.00  0.00    -0.292 OA
BRANCH  23  25
ATOM     25  C   UNL     1      14.645 -18.774   3.627  1.00  0.00    +0.055 A 
ATOM     26  C   UNL     1      14.642 -19.860   4.516  1.00  0.00    +0.015 A 
ATOM     27  C   UNL     1      13.908 -17.636   3.957  1.00  0.00    +0.134 A 
ATOM     28  C   UNL     1      13.920 -19.797   5.711  1.00  0.00    +0.001 A 
ATOM     29  C   UNL     1      13.186 -17.569   5.148  1.00  0.00    +0.040 A 
ATOM     30  C   UNL     1      13.193 -18.650   6.028  1.00  0.00    +0.003 A 
ATOM     31  F   UNL     1      13.858 -16.575   3.139  1.00  0.00    -0.206 F 
ENDBRANCH  23  25
ENDBRANCH  22  23
ENDBRANCH   6  22
TORSDOF 6
ENDMDL
MODEL 5
REMARK VINA RESULT:    -7.403      2.383      3.962
REMARK INTER + INTRA:         -11.308
REMARK INTER:                 -10.138
REMARK INTRA:                  -1.170
REMARK UNBOUND:                -1.525
REMARK SMILES CC1(c2ccc(S(N)(=O)=O)cc2)NC(=O)N(CC(=O)c2ccccc2F)C1=O
REMARK SMILES IDX 1 1 2 2 13 3 14 4 15 5 16 6 27 7 28 8 3 10 4 11 12 12 5 13
REMARK SMILES IDX 11 14 6 15 7 16 9 17 10 18 8 19 17 22 18 23 19 24 20 25
REMARK SMILES IDX 21 26 25 27 22 28 24 29 23 30 26 31
REMARK H PARENT 13 9 8 20 8 21
ROOT
ATOM      1  C   UNL     1      17.456 -22.513   4.586  1.00  0.00    +0.051 C 
ATOM      2  C   UNL     1      16.825 -21.957   3.307  1.00  0.00    +0.144 C 
ATOM      3  N   UNL     1      16.153 -23.029   2.595  1.00  0.00    -0.319 N 
ATOM      4  C   UNL     1      16.800 -23.379   1.437  1.00  0.00    +0.325 C 
ATOM      5  O   UNL     1      16.481 -24.327   0.739  1.00  0.00    -0.248 OA
ATOM      6  N   UNL     1      17.826 -22.514   1.231  1.00  0.00    -0.254 N 
ATOM      7  C   UNL     1      17.939 -21.643   2.278  1.00  0.00    +0.261 C 
ATOM      8  O   UNL     1      18.801 -20.778   2.392  1.00  0.00    -0.271 OA
ATOM      9  H   UNL     1      15.441 -23.630   2.985  1.00  0.00    +0.166 HD
ENDROOT
BRANCH   2  10
ATOM     10  C   UNL     1      15.919 -20.757   3.573  1.00  0.00    -0.013 A 
ATOM     11  C   UNL     1      15.809 -19.731   2.613  1.00  0.00    +0.008 A 
ATOM     12  C   UNL     1      15.179 -20.624   4.764  1.00  0.00    +0.008 A 
ATOM     13  C   UNL     1      14.996 -18.616   2.829  1.00  0.00    +0.022 A 
ATOM     14  C   UNL     1      14.363 -19.510   4.987  1.00  0.00    +0.022 A 
ATOM     15  C   UNL     1      14.268 -18.516   4.013  1.00  0.00    +0.082 A 
BRANCH  15  16
ATOM     16  S   UNL     1      13.261 -17.093   4.306  1.00  0.00    +0.238 S 
ATOM     17  O   UNL     1      14.014 -16.126   5.070  1.00  0.00    -0.207 OA
ATOM     18  O   UNL     1      11.935 -17.519   4.688  1.00  0.00    -0.207 OA
BRANCH  16  19
ATOM     19  N   UNL     1      13.111 -16.449   2.763  1.00  0.00    -0.225 NA
ATOM     20  H   UNL     1      13.343 -15.457   2.777  1.00  0.00    +0.137 HD
ATOM     21  H   UNL     1      13.668 -16.994   2.104  1.00  0.00    +0.137 HD
ENDBRANCH  16  19
ENDBRANCH  15  16
ENDBRANCH   2  10
BRANCH   6  22
ATOM     22  C   UNL     1      18.781 -22.630   0.152  1.00  0.00    +0.211 C 
BRANCH  22  23
ATOM     23  C   UNL     1      19.667 -23.847   0.408  1.00  0.00    +0.185 C 
ATOM     24  O   UNL     1      19.715 -24.807  -0.365  1.00  0.00    -0.292 OA
BRANCH  23  25
ATOM     25  C   UNL     1      20.504 -23.885   1.640  1.00  0.00    +0.055 A 
ATOM     26  C   UNL     1      21.700 -23.152   1.660  1.00  0.00    +0.015 A 
ATOM     27  C   UNL     1      20.152 -24.623   2.771  1.00  0.00    +0.134 A 
ATOM     28  C   UNL     1      22.516 -23.157   2.794  1.00  0.00    +0.001 A 
ATOM     29  C   UNL     1      20.963 -24.631   3.905  1.00  0.00    +0.040 A 
ATOM     30  C   UNL     1      22.148 -23.895   3.918  1.00  0.00    +0.003 A 
ATOM     31  F   UNL     1      19.030 -25.357   2.804  1.00  0.00    -0.206 F 
ENDBRANCH  23  25
ENDBRANCH  22  23
ENDBRANCH   6  22
TORSDOF 6
ENDMDL
MODEL 6
REMARK VINA RESULT:    -7.384      4.433      7.171
REMARK INTER + INTRA:         -11.283
REMARK INTER:                 -10.313
REMARK INTRA:                  -0.970
REMARK UNBOUND:                -1.525
REMARK SMILES CC1(c2ccc(S(N)(=O)=O)cc2)NC(=O)N(CC(=O)c2ccccc2F)C1=O
REMARK SMILES IDX 1 1 2 2 13 3 14 4 15 5 16 6 27 7 28 8 3 10 4 11 12 12 5 13
REMARK SMILES IDX 11 14 6 15 7 16 9 17 10 18 8 19 17 22 18 23 19 24 20 25
REMARK SMILES IDX 21 26 25 27 22 28 24 29 23 30 26 31
REMARK H PARENT 13 9 8 20 8 21
ROOT
ATOM      1  C   UNL     1      20.844 -23.241  -0.112  1.00  0.00    +0.051 C 
ATOM      2  C   UNL     1      20.542 -23.349   1.385  1.00  0.00    +0.144 C 
ATOM      3  N   UNL     1      19.934 -24.638   1.663  1.00  0.00    -0.319 N 
ATOM      4  C   UNL     1      18.605 -24.534   1.989  1.00  0.00    +0.325 C 
ATOM      5  O   UNL     1      17.867 -25.492   2.149  1.00  0.00    -0.248 OA
ATOM      6  N   UNL     1      18.280 -23.220   2.084  1.00  0.00    -0.254 N 
ATOM      7  C   UNL     1      19.342 -22.434   1.736  1.00  0.00    +0.261 C 
ATOM      8  O   UNL     1      19.333 -21.209   1.684  1.00  0.00    -0.271 OA
ATOM      9  H   UNL     1      20.334 -25.534   1.422  1.00  0.00    +0.166 HD
ENDROOT
BRANCH   2  10
ATOM     10  C   UNL     1      21.766 -23.067   2.253  1.00  0.00    -0.013 A 
ATOM     11  C   UNL     1      22.771 -22.194   1.791  1.00  0.00    +0.008 A 
ATOM     12  C   UNL     1      21.942 -23.660   3.519  1.00  0.00    +0.008 A 
ATOM     13  C   UNL     1      23.907 -21.921   2.557  1.00  0.00    +0.022 A 
ATOM     14  C   UNL     1      23.077 -23.391   4.292  1.00  0.00    +0.022 A 
ATOM     15  C   UNL     1      24.049 -22.515   3.810  1.00  0.00    +0.082 A 
BRANCH  15  16
ATOM     16  S   UNL     1      25.499 -22.198   4.771  1.00  0.00    +0.238 S 
ATOM     17  O   UNL     1      25.582 -20.784   5.052  1.00  0.00    -0.207 OA
ATOM     18  O   UNL     1      26.607 -22.945   4.223  1.00  0.00    -0.207 OA
BRANCH  16  19
ATOM     19  N   UNL     1      25.121 -22.939   6.229  1.00  0.00    -0.225 NA
ATOM     20  H   UNL     1      24.109 -23.005   6.332  1.00  0.00    +0.137 HD
ATOM     21  H   UNL     1      25.602 -23.836   6.297  1.00  0.00    +0.137 HD
ENDBRANCH  16  19
ENDBRANCH  15  16
ENDBRANCH   2  10
BRANCH   6  22
ATOM     22  C   UNL     1      16.941 -22.732   2.326  1.00  0.00    +0.211 C 
BRANCH  22  23
ATOM     23  C   UNL     1      16.830 -22.303   3.787  1.00  0.00    +0.185 C 
ATOM     24  O   UNL     1      17.527 -22.795   4.677  1.00  0.00    -0.292 OA
BRANCH  23  25
ATOM     25  C   UNL     1      15.838 -21.255   4.159  1.00  0.00    +0.055 A 
ATOM     26  C   UNL     1      14.806 -21.595   5.047  1.00  0.00    +0.015 A 
ATOM     27  C   UNL     1      15.889 -19.954   3.658  1.00  0.00    +0.134 A 
ATOM     28  C   UNL     1      13.854 -20.645   5.426  1.00  0.00    +0.001 A 
ATOM     29  C   UNL     1      14.941 -19.002   4.033  1.00  0.00    +0.040 A 
ATOM     30  C   UNL     1      13.922 -19.348   4.920  1.00  0.00    +0.003 A 
ATOM     31  F   UNL     1      16.840 -19.576   2.792  1.00  0.00    -0.206 F 
ENDBRANCH  23  25
ENDBRANCH  22  23
ENDBRANCH   6  22
TORSDOF 6
ENDMDL
MODEL 7
REMARK VINA RESULT:    -7.366      3.785      7.175
REMARK INTER + INTRA:         -11.260
REMARK INTER:                 -10.656
REMARK INTRA:                  -0.604
REMARK UNBOUND:                -1.525
REMARK SMILES CC1(c2ccc(S(N)(=O)=O)cc2)NC(=O)N(CC(=O)c2ccccc2F)C1=O
REMARK SMILES IDX 1 1 2 2 13 3 14 4 15 5 16 6 27 7 28 8 3 10 4 11 12 12 5 13
REMARK SMILES IDX 11 14 6 15 7 16 9 17 10 18 8 19 17 22 18 23 19 24 20 25
REMARK SMILES IDX 21 26 25 27 22 28 24 29 23 30 26 31
REMARK H PARENT 13 9 8 20 8 21
ROOT
ATOM      1  C   UNL     1      18.058 -25.501   1.090  1.00  0.00    +0.051 C 
ATOM      2  C   UNL     1      18.391 -24.008   1.170  1.00  0.00    +0.144 C 
ATOM      3  N   UNL     1      19.214 -23.759   2.339  1.00  0.00    -0.319 N 
ATOM      4  C   UNL     1      18.542 -23.073   3.319  1.00  0.00    +0.325 C 
ATOM      5  O   UNL     1      18.997 -22.854   4.430  1.00  0.00    -0.248 OA
ATOM      6  N   UNL     1      17.324 -22.711   2.843  1.00  0.00    -0.254 N 
ATOM      7  C   UNL     1      17.125 -23.221   1.590  1.00  0.00    +0.261 C 
ATOM      8  O   UNL     1      16.101 -23.097   0.927  1.00  0.00    -0.271 OA
ATOM      9  H   UNL     1      20.088 -24.221   2.545  1.00  0.00    +0.166 HD
ENDROOT
BRANCH   2  10
ATOM     10  C   UNL     1      19.009 -23.475  -0.121  1.00  0.00    -0.013 A 
ATOM     11  C   UNL     1      18.542 -22.269  -0.680  1.00  0.00    +0.008 A 
ATOM     12  C   UNL     1      20.042 -24.155  -0.795  1.00  0.00    +0.008 A 
ATOM     13  C   UNL     1      19.080 -21.758  -1.863  1.00  0.00    +0.022 A 
ATOM     14  C   UNL     1      20.586 -23.649  -1.981  1.00  0.00    +0.022 A 
ATOM     15  C   UNL     1      20.109 -22.448  -2.504  1.00  0.00    +0.082 A 
BRANCH  15  16
ATOM     16  S   UNL     1      20.773 -21.822  -4.018  1.00  0.00    +0.238 S 
ATOM     17  O   UNL     1      21.088 -22.928  -4.892  1.00  0.00    -0.207 OA
ATOM     18  O   UNL     1      21.723 -20.774  -3.723  1.00  0.00    -0.207 OA
BRANCH  16  19
ATOM     19  N   UNL     1      19.441 -21.060  -4.695  1.00  0.00    -0.225 NA
ATOM     20  H   UNL     1      18.640 -21.691  -4.689  1.00  0.00    +0.137 HD
ATOM     21  H   UNL     1      19.271 -20.172  -4.221  1.00  0.00    +0.137 HD
ENDBRANCH  16  19
ENDBRANCH  15  16
ENDBRANCH   2  10
BRANCH   6  22
ATOM     22  C   UNL     1      16.309 -22.048   3.631  1.00  0.00    +0.211 C 
BRANCH  22  23
ATOM     23  C   UNL     1      16.418 -20.541   3.408  1.00  0.00    +0.185 C 
ATOM     24  O   UNL     1      17.113 -20.052   2.515  1.00  0.00    -0.292 OA
BRANCH  23  25
ATOM     25  C   UNL     1      15.665 -19.622   4.306  1.00  0.00    +0.055 A 
ATOM     26  C   UNL     1      14.616 -18.865   3.761  1.00  0.00    +0.015 A 
ATOM     27  C   UNL     1      15.961 -19.477   5.662  1.00  0.00    +0.134 A 
ATOM     28  C   UNL     1      13.880 -17.990   4.565  1.00  0.00    +0.001 A 
ATOM     29  C   UNL     1      15.230 -18.605   6.468  1.00  0.00    +0.040 A 
ATOM     30  C   UNL     1      14.186 -17.861   5.919  1.00  0.00    +0.003 A 
ATOM     31  F   UNL     1      16.963 -20.160   6.234  1.00  0.00    -0.206 F 
ENDBRANCH  23  25
ENDBRANCH  22  23
ENDBRANCH   6  22
TORSDOF 6
ENDMDL
MODEL 8
REMARK VINA RESULT:    -7.297      3.110      4.186
REMARK INTER + INTRA:         -11.168
REMARK INTER:                 -10.286
REMARK INTRA:                  -0.881
REMARK UNBOUND:                -1.525
REMARK SMILES CC1(c2ccc(S(N)(=O)=O)cc2)NC(=O)N(CC(=O)c2ccccc2F)C1=O
REMARK SMILES IDX 1 1 2 2 13 3 14 4 15 5 16 6 27 7 28 8 3 10 4 11 12 12 5 13
REMARK SMILES IDX 11 14 6 15 7 16 9 17 10 18 8 19 17 22 18 23 19 24 20 25
REMARK SMILES IDX 21 26 25 27 22 28 24 29 23 30 26 31
REMARK H PARENT 13 9 8 20 8 21
ROOT
ATOM      1  C   UNL     1      16.753 -23.690  -0.247  1.00  0.00    +0.051 C 
ATOM      2  C   UNL     1      17.361 -22.312   0.026  1.00  0.00    +0.144 C 
ATOM      3  N   UNL     1      17.043 -21.418  -1.072  1.00  0.00    -0.319 N 
ATOM      4  C   UNL     1      18.140 -21.113  -1.838  1.00  0.00    +0.325 C 
ATOM      5  O   UNL     1      18.089 -20.474  -2.876  1.00  0.00    -0.248 OA
ATOM      6  N   UNL     1      19.243 -21.645  -1.254  1.00  0.00    -0.254 N 
ATOM      7  C   UNL     1      18.898 -22.382  -0.156  1.00  0.00    +0.261 C 
ATOM      8  O   UNL     1      19.677 -23.016   0.548  1.00  0.00    -0.271 OA
ATOM      9  H   UNL     1      16.112 -21.219  -1.410  1.00  0.00    +0.166 HD
ENDROOT
BRANCH   2  10
ATOM     10  C   UNL     1      16.959 -21.751   1.388  1.00  0.00    -0.013 A 
ATOM     11  C   UNL     1      16.638 -22.628   2.444  1.00  0.00    +0.008 A 
ATOM     12  C   UNL     1      16.884 -20.367   1.638  1.00  0.00    +0.008 A 
ATOM     13  C   UNL     1      16.258 -22.148   3.699  1.00  0.00    +0.022 A 
ATOM     14  C   UNL     1      16.504 -19.879   2.893  1.00  0.00    +0.022 A 
ATOM     15  C   UNL     1      16.202 -20.772   3.920  1.00  0.00    +0.082 A 
BRANCH  15  16
ATOM     16  S   UNL     1      15.693 -20.158   5.497  1.00  0.00    +0.238 S 
ATOM     17  O   UNL     1      16.493 -20.776   6.529  1.00  0.00    -0.207 OA
ATOM     18  O   UNL     1      14.250 -20.125   5.552  1.00  0.00    -0.207 OA
BRANCH  16  19
ATOM     19  N   UNL     1      16.187 -18.556   5.424  1.00  0.00    -0.225 NA
ATOM     20  H   UNL     1      17.169 -18.508   5.154  1.00  0.00    +0.137 HD
ATOM     21  H   UNL     1      15.564 -18.028   4.813  1.00  0.00    +0.137 HD
ENDBRANCH  16  19
ENDBRANCH  15  16
ENDBRANCH   2  10
BRANCH   6  22
ATOM     22  C   UNL     1      20.568 -21.598  -1.829  1.00  0.00    +0.211 C 
BRANCH  22  23
ATOM     23  C   UNL     1      20.683 -22.690  -2.891  1.00  0.00    +0.185 C 
ATOM     24  O   UNL     1      20.609 -23.890  -2.619  1.00  0.00    -0.292 OA
BRANCH  23  25
ATOM     25  C   UNL     1      20.898 -22.295  -4.312  1.00  0.00    +0.055 A 
ATOM     26  C   UNL     1      21.819 -21.274  -4.590  1.00  0.00    +0.015 A 
ATOM     27  C   UNL     1      20.219 -22.893  -5.374  1.00  0.00    +0.134 A 
ATOM     28  C   UNL     1      22.054 -20.871  -5.908  1.00  0.00    +0.001 A 
ATOM     29  C   UNL     1      20.451 -22.494  -6.690  1.00  0.00    +0.040 A 
ATOM     30  C   UNL     1      21.372 -21.481  -6.958  1.00  0.00    +0.003 A 
ATOM     31  F   UNL     1      19.314 -23.861  -5.168  1.00  0.00    -0.206 F 
ENDBRANCH  23  25
ENDBRANCH  22  23
ENDBRANCH   6  22
TORSDOF 6
ENDMDL
MODEL 9
REMARK VINA RESULT:    -7.113      2.308      3.919
REMARK INTER + INTRA:         -10.925
REMARK INTER:                  -9.789
REMARK INTRA:                  -1.135
REMARK UNBOUND:                -1.525
REMARK SMILES CC1(c2ccc(S(N)(=O)=O)cc2)NC(=O)N(CC(=O)c2ccccc2F)C1=O
REMARK SMILES IDX 1 1 2 2 13 3 14 4 15 5 16 6 27 7 28 8 3 10 4 11 12 12 5 13
REMARK SMILES IDX 11 14 6 15 7 16 9 17 10 18 8 19 17 22 18 23 19 24 20 25
REMARK SMILES IDX 21 26 25 27 22 28 24 29 23 30 26 31
REMARK H PARENT 13 9 8 20 8 21
ROOT
ATOM      1  C   UNL     1      17.677 -23.824   3.308  1.00  0.00    +0.051 C 
ATOM      2  C   UNL     1      17.216 -22.646   2.445  1.00  0.00    +0.144 C 
ATOM      3  N   UNL     1      16.487 -23.148   1.294  1.00  0.00    -0.319 N 
ATOM      4  C   UNL     1      17.181 -22.990   0.121  1.00  0.00    +0.325 C 
ATOM      5  O   UNL     1      16.814 -23.439  -0.952  1.00  0.00    -0.248 OA
ATOM      6  N   UNL     1      18.309 -22.280   0.373  1.00  0.00    -0.254 N 
ATOM      7  C   UNL     1      18.437 -22.036   1.712  1.00  0.00    +0.261 C 
ATOM      8  O   UNL     1      19.378 -21.456   2.242  1.00  0.00    -0.271 OA
ATOM      9  H   UNL     1      15.683 -23.758   1.335  1.00  0.00    +0.166 HD
ENDROOT
BRANCH   2  10
ATOM     10  C   UNL     1      16.432 -21.606   3.241  1.00  0.00    -0.013 A 
ATOM     11  C   UNL     1      16.384 -20.269   2.798  1.00  0.00    +0.008 A 
ATOM     12  C   UNL     1      15.748 -21.929   4.429  1.00  0.00    +0.008 A 
ATOM     13  C   UNL     1      15.683 -19.291   3.508  1.00  0.00    +0.022 A 
ATOM     14  C   UNL     1      15.043 -20.955   5.146  1.00  0.00    +0.022 A 
ATOM     15  C   UNL     1      15.007 -19.642   4.675  1.00  0.00    +0.082 A 
BRANCH  15  16
ATOM     16  S   UNL     1      14.143 -18.404   5.595  1.00  0.00    +0.238 S 
ATOM     17  O   UNL     1      15.014 -17.880   6.621  1.00  0.00    -0.207 OA
ATOM     18  O   UNL     1      12.805 -18.867   5.877  1.00  0.00    -0.207 OA
BRANCH  16  19
ATOM     19  N   UNL     1      13.976 -17.180   4.459  1.00  0.00    -0.225 NA
ATOM     20  H   UNL     1      14.295 -16.295   4.853  1.00  0.00    +0.137 HD
ATOM     21  H   UNL     1      14.451 -17.442   3.594  1.00  0.00    +0.137 HD
ENDBRANCH  16  19
ENDBRANCH  15  16
ENDBRANCH   2  10
BRANCH   6  22
ATOM     22  C   UNL     1      19.328 -21.999  -0.613  1.00  0.00    +0.211 C 
BRANCH  22  23
ATOM     23  C   UNL     1      20.087 -23.288  -0.920  1.00  0.00    +0.185 C 
ATOM     24  O   UNL     1      20.246 -23.707  -2.068  1.00  0.00    -0.292 OA
BRANCH  23  25
ATOM     25  C   UNL     1      20.653 -24.079   0.209  1.00  0.00    +0.055 A 
ATOM     26  C   UNL     1      20.044 -25.299   0.543  1.00  0.00    +0.015 A 
ATOM     27  C   UNL     1      21.755 -23.655   0.952  1.00  0.00    +0.134 A 
ATOM     28  C   UNL     1      20.541 -26.075   1.594  1.00  0.00    +0.001 A 
ATOM     29  C   UNL     1      22.254 -24.427   2.001  1.00  0.00    +0.040 A 
ATOM     30  C   UNL     1      21.647 -25.640   2.322  1.00  0.00    +0.003 A 
ATOM     31  F   UNL     1      22.366 -22.491   0.691  1.00  0.00    -0.206 F 
ENDBRANCH  23  25
ENDBRANCH  22  23
ENDBRANCH   6  22
TORSDOF 6
ENDMDL
