MODEL 1
REMARK VINA RESULT:    -9.797      0.000      0.000
REMARK INTER + INTRA:         -13.054
REMARK INTER:                 -12.661
REMARK INTRA:                  -0.393
REMARK UNBOUND:                -0.393
REMARK SMILES N#CCCc1cc(C(F)(F)F)cc2c(=O)nc(N3CCN(CC4CCCCC4)CC3)sc12
REMARK SMILES IDX 5 1 6 2 7 3 12 4 13 5 14 6 15 7 16 8 17 9 18 10 19 11 20 12
REMARK SMILES IDX 21 13 29 14 30 15 31 16 32 17 4 18 3 19 1 20 2 21 8 22 9 23
REMARK SMILES IDX 10 24 11 25 22 26 23 27 24 28 28 29 25 30 27 31 26 32
REMARK H PARENT
ROOT
ATOM      1  C   UNL     1      15.371 -20.279   4.184  1.00  0.00    -0.028 A 
ATOM      2  C   UNL     1      14.664 -19.085   3.932  1.00  0.00    +0.018 A 
ATOM      3  C   UNL     1      14.861 -18.348   2.755  1.00  0.00    +0.057 A 
ATOM      4  C   UNL     1      15.800 -18.810   1.828  1.00  0.00    +0.028 A 
ATOM      5  C   UNL     1      16.520 -19.991   2.072  1.00  0.00    +0.060 A 
ATOM      6  C   UNL     1      17.495 -20.456   1.061  1.00  0.00    +0.281 C 
ATOM      7  O   UNL     1      17.304 -20.130  -0.106  1.00  0.00    -0.267 OA
ATOM      8  N   UNL     1      18.606 -21.147   1.454  1.00  0.00    -0.181 NA
ATOM      9  C   UNL     1      18.614 -21.971   2.453  1.00  0.00    +0.189 C 
ATOM     10  N   UNL     1      19.766 -22.665   2.786  1.00  0.00    -0.345 N 
ATOM     11  C   UNL     1      20.936 -22.622   1.891  1.00  0.00    +0.134 C 
ATOM     12  C   UNL     1      21.719 -23.955   1.906  1.00  0.00    +0.106 C 
ATOM     13  N   UNL     1      22.130 -24.447   3.238  1.00  0.00    -0.300 NA
ATOM     14  C   UNL     1      21.427 -23.728   4.316  1.00  0.00    +0.106 C 
ATOM     15  C   UNL     1      19.938 -23.474   4.002  1.00  0.00    +0.134 C 
ATOM     16  S   UNL     1      17.177 -22.273   3.427  1.00  0.00    -0.098 SA
ATOM     17  C   UNL     1      16.308 -20.737   3.232  1.00  0.00    +0.047 A 
ENDROOT
BRANCH   1  18
ATOM     18  C   UNL     1      15.064 -21.026   5.468  1.00  0.00    +0.052 C 
BRANCH  18  19
ATOM     19  C   UNL     1      15.998 -20.622   6.610  1.00  0.00    +0.125 C 
ATOM     20  N   UNL     1      15.956 -18.014   6.937  1.00  0.00    -0.198 NA
ATOM     21  C   UNL     1      15.980 -19.166   6.796  1.00  0.00    +0.062 C 
ENDBRANCH  18  19
ENDBRANCH   1  18
BRANCH   3  22
ATOM     22  C   UNL     1      14.106 -17.061   2.513  1.00  0.00    +0.416 C 
ATOM     23  F   UNL     1      14.003 -16.308   3.640  1.00  0.00    -0.166 F 
ATOM     24  F   UNL     1      12.832 -17.272   2.082  1.00  0.00    -0.166 F 
ATOM     25  F   UNL     1      14.691 -16.266   1.575  1.00  0.00    -0.166 F 
ENDBRANCH   3  22
BRANCH  13  26
ATOM     26  C   UNL     1      23.583 -24.423   3.447  1.00  0.00    +0.088 C 
BRANCH  26  27
ATOM     27  C   UNL     1      24.016 -23.589   4.675  1.00  0.00    +0.003 C 
ATOM     28  C   UNL     1      24.985 -24.410   5.544  1.00  0.00    +0.005 C 
ATOM     29  C   UNL     1      24.664 -22.255   4.264  1.00  0.00    +0.005 C 
ATOM     30  C   UNL     1      25.478 -23.617   6.752  1.00  0.00    +0.000 C 
ATOM     31  C   UNL     1      25.162 -21.468   5.474  1.00  0.00    +0.000 C 
ATOM     32  C   UNL     1      26.112 -22.295   6.335  1.00  0.00    +0.000 C 
ENDBRANCH  26  27
ENDBRANCH  13  26
TORSDOF 5
ENDMDL
MODEL 2
REMARK VINA RESULT:    -9.534      4.404      6.849
REMARK INTER + INTRA:         -12.714
REMARK INTER:                 -11.983
REMARK INTRA:                  -0.731
REMARK UNBOUND:                -0.393
REMARK SMILES N#CCCc1cc(C(F)(F)F)cc2c(=O)nc(N3CCN(CC4CCCCC4)CC3)sc12
REMARK SMILES IDX 5 1 6 2 7 3 12 4 13 5 14 6 15 7 16 8 17 9 18 10 19 11 20 12
REMARK SMILES IDX 21 13 29 14 30 15 31 16 32 17 4 18 3 19 1 20 2 21 8 22 9 23
REMARK SMILES IDX 10 24 11 25 22 26 23 27 24 28 28 29 25 30 27 31 26 32
REMARK H PARENT
ROOT
ATOM      1  C   UNL     1      16.572 -21.409   4.419  1.00  0.00    -0.028 A 
ATOM      2  C   UNL     1      16.074 -20.532   5.405  1.00  0.00    +0.018 A 
ATOM      3  C   UNL     1      15.500 -19.297   5.068  1.00  0.00    +0.057 A 
ATOM      4  C   UNL     1      15.445 -18.933   3.718  1.00  0.00    +0.028 A 
ATOM      5  C   UNL     1      15.949 -19.792   2.728  1.00  0.00    +0.060 A 
ATOM      6  C   UNL     1      15.861 -19.378   1.311  1.00  0.00    +0.281 C 
ATOM      7  O   UNL     1      14.961 -18.606   0.998  1.00  0.00    -0.267 OA
ATOM      8  N   UNL     1      16.814 -19.788   0.421  1.00  0.00    -0.181 NA
ATOM      9  C   UNL     1      17.396 -20.943   0.485  1.00  0.00    +0.189 C 
ATOM     10  N   UNL     1      18.335 -21.313  -0.463  1.00  0.00    -0.345 N 
ATOM     11  C   UNL     1      18.540 -20.480  -1.662  1.00  0.00    +0.134 C 
ATOM     12  C   UNL     1      18.905 -21.333  -2.897  1.00  0.00    +0.106 C 
ATOM     13  N   UNL     1      20.051 -22.252  -2.731  1.00  0.00    -0.300 NA
ATOM     14  C   UNL     1      20.413 -22.406  -1.311  1.00  0.00    +0.106 C 
ATOM     15  C   UNL     1      19.186 -22.510  -0.382  1.00  0.00    +0.134 C 
ATOM     16  S   UNL     1      17.022 -22.110   1.752  1.00  0.00    -0.098 SA
ATOM     17  C   UNL     1      16.500 -21.030   3.061  1.00  0.00    +0.047 A 
ENDROOT
BRANCH   1  18
ATOM     18  C   UNL     1      17.142 -22.738   4.879  1.00  0.00    +0.052 C 
BRANCH  18  19
ATOM     19  C   UNL     1      18.655 -22.672   5.100  1.00  0.00    +0.125 C 
ATOM     20  N   UNL     1      19.847 -24.619   3.799  1.00  0.00    -0.198 NA
ATOM     21  C   UNL     1      19.326 -23.759   4.377  1.00  0.00    +0.062 C 
ENDBRANCH  18  19
ENDBRANCH   1  18
BRANCH   3  22
ATOM     22  C   UNL     1      14.988 -18.363   6.140  1.00  0.00    +0.416 C 
ATOM     23  F   UNL     1      14.979 -17.067   5.728  1.00  0.00    -0.166 F 
ATOM     24  F   UNL     1      15.745 -18.394   7.271  1.00  0.00    -0.166 F 
ATOM     25  F   UNL     1      13.716 -18.646   6.533  1.00  0.00    -0.166 F 
ENDBRANCH   3  22
BRANCH  13  26
ATOM     26  C   UNL     1      21.220 -21.882  -3.538  1.00  0.00    +0.088 C 
BRANCH  26  27
ATOM     27  C   UNL     1      20.901 -21.700  -5.040  1.00  0.00    +0.003 C 
ATOM     28  C   UNL     1      22.090 -21.023  -5.745  1.00  0.00    +0.005 C 
ATOM     29  C   UNL     1      20.565 -23.037  -5.722  1.00  0.00    +0.005 C 
ATOM     30  C   UNL     1      21.844 -20.856  -7.242  1.00  0.00    +0.000 C 
ATOM     31  C   UNL     1      20.326 -22.867  -7.222  1.00  0.00    +0.000 C 
ATOM     32  C   UNL     1      21.505 -22.185  -7.907  1.00  0.00    +0.000 C 
ENDBRANCH  26  27
ENDBRANCH  13  26
TORSDOF 5
ENDMDL
MODEL 3
REMARK VINA RESULT:    -9.401      4.239      6.193
REMARK INTER + INTRA:         -12.542
REMARK INTER:                 -12.251
REMARK INTRA:                  -0.291
REMARK UNBOUND:                -0.393
REMARK SMILES N#CCCc1cc(C(F)(F)F)cc2c(=O)nc(N3CCN(CC4CCCCC4)CC3)sc12
REMARK SMILES IDX 5 1 6 2 7 3 12 4 13 5 14 6 15 7 16 8 17 9 18 10 19 11 20 12
REMARK SMILES IDX 21 13 29 14 30 15 31 16 32 17 4 18 3 19 1 20 2 21 8 22 9 23
REMARK SMILES IDX 10 24 11 25 22 26 23 27 24 28 28 29 25 30 27 31 26 32
REMARK H PARENT
ROOT
ATOM      1  C   UNL     1      15.482 -18.801   2.602  1.00  0.00    -0.028 A 
ATOM      2  C   UNL     1      14.469 -18.162   3.346  1.00  0.00    +0.018 A 
ATOM      3  C   UNL     1      14.053 -18.652   4.594  1.00  0.00    +0.057 A 
ATOM      4  C   UNL     1      14.654 -19.814   5.088  1.00  0.00    +0.028 A 
ATOM      5  C   UNL     1      15.656 -20.466   4.351  1.00  0.00    +0.060 A 
ATOM      6  C   UNL     1      16.278 -21.685   4.913  1.00  0.00    +0.281 C 
ATOM      7  O   UNL     1      16.291 -21.807   6.133  1.00  0.00    -0.267 OA
ATOM      8  N   UNL     1      16.733 -22.665   4.077  1.00  0.00    -0.181 NA
ATOM      9  C   UNL     1      17.260 -22.422   2.918  1.00  0.00    +0.189 C 
ATOM     10  N   UNL     1      17.730 -23.457   2.127  1.00  0.00    -0.345 N 
ATOM     11  C   UNL     1      17.815 -24.823   2.674  1.00  0.00    +0.134 C 
ATOM     12  C   UNL     1      19.017 -25.600   2.091  1.00  0.00    +0.106 C 
ATOM     13  N   UNL     1      19.100 -25.651   0.616  1.00  0.00    -0.300 NA
ATOM     14  C   UNL     1      18.190 -24.671  -0.006  1.00  0.00    +0.106 C 
ATOM     15  C   UNL     1      18.169 -23.315   0.730  1.00  0.00    +0.134 C 
ATOM     16  S   UNL     1      17.427 -20.784   2.292  1.00  0.00    -0.098 SA
ATOM     17  C   UNL     1      16.085 -19.968   3.121  1.00  0.00    +0.047 A 
ENDROOT
BRANCH   1  18
ATOM     18  C   UNL     1      15.889 -18.177   1.280  1.00  0.00    +0.052 C 
BRANCH  18  19
ATOM     19  C   UNL     1      15.745 -19.154   0.111  1.00  0.00    +0.125 C 
ATOM     20  N   UNL     1      17.582 -18.670  -1.705  1.00  0.00    -0.198 NA
ATOM     21  C   UNL     1      16.768 -18.887  -0.908  1.00  0.00    +0.062 C 
ENDBRANCH  18  19
ENDBRANCH   1  18
BRANCH   3  22
ATOM     22  C   UNL     1      12.954 -17.963   5.368  1.00  0.00    +0.416 C 
ATOM     23  F   UNL     1      13.291 -16.693   5.716  1.00  0.00    -0.166 F 
ATOM     24  F   UNL     1      12.646 -18.604   6.529  1.00  0.00    -0.166 F 
ATOM     25  F   UNL     1      11.787 -17.870   4.672  1.00  0.00    -0.166 F 
ENDBRANCH   3  22
BRANCH  13  26
ATOM     26  C   UNL     1      18.885 -26.994   0.064  1.00  0.00    +0.088 C 
BRANCH  26  27
ATOM     27  C   UNL     1      18.285 -27.991   1.082  1.00  0.00    +0.003 C 
ATOM     28  C   UNL     1      16.754 -28.029   0.931  1.00  0.00    +0.005 C 
ATOM     29  C   UNL     1      18.874 -29.403   0.919  1.00  0.00    +0.005 C 
ATOM     30  C   UNL     1      16.112 -29.031   1.887  1.00  0.00    +0.000 C 
ATOM     31  C   UNL     1      18.225 -30.405   1.872  1.00  0.00    +0.000 C 
ATOM     32  C   UNL     1      16.707 -30.424   1.722  1.00  0.00    +0.000 C 
ENDBRANCH  26  27
ENDBRANCH  13  26
TORSDOF 5
ENDMDL
MODEL 4
REMARK VINA RESULT:    -9.380      4.867      7.169
REMARK INTER + INTRA:         -12.514
REMARK INTER:                 -12.108
REMARK INTRA:                  -0.407
REMARK UNBOUND:                -0.393
REMARK SMILES N#CCCc1cc(C(F)(F)F)cc2c(=O)nc(N3CCN(CC4CCCCC4)CC3)sc12
REMARK SMILES IDX 5 1 6 2 7 3 12 4 13 5 14 6 15 7 16 8 17 9 18 10 19 11 20 12
REMARK SMILES IDX 21 13 29 14 30 15 31 16 32 17 4 18 3 19 1 20 2 21 8 22 9 23
REMARK SMILES IDX 10 24 11 25 22 26 23 27 24 28 28 29 25 30 27 31 26 32
REMARK H PARENT
ROOT
ATOM      1  C   UNL     1      16.477 -20.039   2.693  1.00  0.00    -0.028 A 
ATOM      2  C   UNL     1      15.560 -20.248   3.744  1.00  0.00    +0.018 A 
ATOM      3  C   UNL     1      15.604 -21.405   4.537  1.00  0.00    +0.057 A 
ATOM      4  C   UNL     1      16.573 -22.372   4.254  1.00  0.00    +0.028 A 
ATOM      5  C   UNL     1      17.484 -22.181   3.203  1.00  0.00    +0.060 A 
ATOM      6  C   UNL     1      18.504 -23.220   2.943  1.00  0.00    +0.281 C 
ATOM      7  O   UNL     1      18.853 -23.924   3.885  1.00  0.00    -0.267 OA
ATOM      8  N   UNL     1      18.958 -23.426   1.671  1.00  0.00    -0.181 NA
ATOM      9  C   UNL     1      19.101 -22.473   0.805  1.00  0.00    +0.189 C 
ATOM     10  N   UNL     1      19.593 -22.740  -0.462  1.00  0.00    -0.345 N 
ATOM     11  C   UNL     1      20.142 -24.072  -0.774  1.00  0.00    +0.134 C 
ATOM     12  C   UNL     1      21.310 -23.988  -1.783  1.00  0.00    +0.106 C 
ATOM     13  N   UNL     1      21.028 -23.262  -3.038  1.00  0.00    -0.300 NA
ATOM     14  C   UNL     1      19.782 -22.480  -2.938  1.00  0.00    +0.106 C 
ATOM     15  C   UNL     1      19.619 -21.777  -1.574  1.00  0.00    +0.134 C 
ATOM     16  S   UNL     1      18.702 -20.799   1.183  1.00  0.00    -0.098 SA
ATOM     17  C   UNL     1      17.456 -21.021   2.427  1.00  0.00    +0.047 A 
ENDROOT
BRANCH   1  18
ATOM     18  C   UNL     1      16.374 -18.742   1.913  1.00  0.00    +0.052 C 
BRANCH  18  19
ATOM     19  C   UNL     1      15.690 -18.934   0.558  1.00  0.00    +0.125 C 
ATOM     20  N   UNL     1      17.366 -18.384  -1.390  1.00  0.00    -0.198 NA
ATOM     21  C   UNL     1      16.621 -18.627  -0.535  1.00  0.00    +0.062 C 
ENDBRANCH  18  19
ENDBRANCH   1  18
BRANCH   3  22
ATOM     22  C   UNL     1      14.601 -21.619   5.647  1.00  0.00    +0.416 C 
ATOM     23  F   UNL     1      15.136 -22.299   6.696  1.00  0.00    -0.166 F 
ATOM     24  F   UNL     1      13.516 -22.337   5.246  1.00  0.00    -0.166 F 
ATOM     25  F   UNL     1      14.111 -20.456   6.158  1.00  0.00    -0.166 F 
ENDBRANCH   3  22
BRANCH  13  26
ATOM     26  C   UNL     1      21.015 -24.127  -4.224  1.00  0.00    +0.088 C 
BRANCH  26  27
ATOM     27  C   UNL     1      21.489 -23.416  -5.513  1.00  0.00    +0.003 C 
ATOM     28  C   UNL     1      20.278 -23.102  -6.409  1.00  0.00    +0.005 C 
ATOM     29  C   UNL     1      22.274 -22.129  -5.203  1.00  0.00    +0.005 C 
ATOM     30  C   UNL     1      20.686 -22.360  -7.679  1.00  0.00    +0.000 C 
ATOM     31  C   UNL     1      22.675 -21.386  -6.476  1.00  0.00    +0.000 C 
ATOM     32  C   UNL     1      21.468 -21.091  -7.362  1.00  0.00    +0.000 C 
ENDBRANCH  26  27
ENDBRANCH  13  26
TORSDOF 5
ENDMDL
MODEL 5
REMARK VINA RESULT:    -9.085      4.176      5.613
REMARK INTER + INTRA:         -12.133
REMARK INTER:                 -11.959
REMARK INTRA:                  -0.174
REMARK UNBOUND:                -0.393
REMARK SMILES N#CCCc1cc(C(F)(F)F)cc2c(=O)nc(N3CCN(CC4CCCCC4)CC3)sc12
REMARK SMILES IDX 5 1 6 2 7 3 12 4 13 5 14 6 15 7 16 8 17 9 18 10 19 11 20 12
REMARK SMILES IDX 21 13 29 14 30 15 31 16 32 17 4 18 3 19 1 20 2 21 8 22 9 23
REMARK SMILES IDX 10 24 11 25 22 26 23 27 24 28 28 29 25 30 27 31 26 32
REMARK H PARENT
ROOT
ATOM      1  C   UNL     1      15.320 -18.532   2.496  1.00  0.00    -0.028 A 
ATOM      2  C   UNL     1      14.303 -17.854   3.199  1.00  0.00    +0.018 A 
ATOM      3  C   UNL     1      13.882 -18.274   4.470  1.00  0.00    +0.057 A 
ATOM      4  C   UNL     1      14.483 -19.406   5.030  1.00  0.00    +0.028 A 
ATOM      5  C   UNL     1      15.488 -20.097   4.334  1.00  0.00    +0.060 A 
ATOM      6  C   UNL     1      16.108 -21.283   4.966  1.00  0.00    +0.281 C 
ATOM      7  O   UNL     1      16.117 -21.337   6.191  1.00  0.00    -0.267 OA
ATOM      8  N   UNL     1      16.568 -22.307   4.187  1.00  0.00    -0.181 NA
ATOM      9  C   UNL     1      17.099 -22.128   3.019  1.00  0.00    +0.189 C 
ATOM     10  N   UNL     1      17.574 -23.204   2.288  1.00  0.00    -0.345 N 
ATOM     11  C   UNL     1      17.658 -24.538   2.910  1.00  0.00    +0.134 C 
ATOM     12  C   UNL     1      18.864 -25.345   2.376  1.00  0.00    +0.106 C 
ATOM     13  N   UNL     1      18.952 -25.477   0.907  1.00  0.00    -0.300 NA
ATOM     14  C   UNL     1      18.045 -24.533   0.228  1.00  0.00    +0.106 C 
ATOM     15  C   UNL     1      18.019 -23.139   0.888  1.00  0.00    +0.134 C 
ATOM     16  S   UNL     1      17.268 -20.526   2.304  1.00  0.00    -0.098 SA
ATOM     17  C   UNL     1      15.922 -19.667   3.080  1.00  0.00    +0.047 A 
ENDROOT
BRANCH   1  18
ATOM     18  C   UNL     1      15.731 -17.981   1.143  1.00  0.00    +0.052 C 
BRANCH  18  19
ATOM     19  C   UNL     1      15.700 -19.051   0.049  1.00  0.00    +0.125 C 
ATOM     20  N   UNL     1      17.608 -18.612  -1.704  1.00  0.00    -0.198 NA
ATOM     21  C   UNL     1      16.763 -18.810  -0.934  1.00  0.00    +0.062 C 
ENDBRANCH  18  19
ENDBRANCH   1  18
BRANCH   3  22
ATOM     22  C   UNL     1      12.779 -17.545   5.200  1.00  0.00    +0.416 C 
ATOM     23  F   UNL     1      13.153 -16.292   5.573  1.00  0.00    -0.166 F 
ATOM     24  F   UNL     1      12.394 -18.179   6.342  1.00  0.00    -0.166 F 
ATOM     25  F   UNL     1      11.650 -17.398   4.455  1.00  0.00    -0.166 F 
ENDBRANCH   3  22
BRANCH  13  26
ATOM     26  C   UNL     1      18.741 -26.849   0.429  1.00  0.00    +0.088 C 
BRANCH  26  27
ATOM     27  C   UNL     1      20.056 -27.606   0.128  1.00  0.00    +0.003 C 
ATOM     28  C   UNL     1      19.839 -28.576  -1.047  1.00  0.00    +0.005 C 
ATOM     29  C   UNL     1      21.216 -26.643  -0.180  1.00  0.00    +0.005 C 
ATOM     30  C   UNL     1      21.119 -29.322  -1.413  1.00  0.00    +0.000 C 
ATOM     31  C   UNL     1      22.494 -27.393  -0.553  1.00  0.00    +0.000 C 
ATOM     32  C   UNL     1      22.263 -28.360  -1.710  1.00  0.00    +0.000 C 
ENDBRANCH  26  27
ENDBRANCH  13  26
TORSDOF 5
ENDMDL
MODEL 6
REMARK VINA RESULT:    -9.054      4.649      7.014
REMARK INTER + INTRA:         -12.094
REMARK INTER:                 -11.437
REMARK INTRA:                  -0.656
REMARK UNBOUND:                -0.393
REMARK SMILES N#CCCc1cc(C(F)(F)F)cc2c(=O)nc(N3CCN(CC4CCCCC4)CC3)sc12
REMARK SMILES IDX 5 1 6 2 7 3 12 4 13 5 14 6 15 7 16 8 17 9 18 10 19 11 20 12
REMARK SMILES IDX 21 13 29 14 30 15 31 16 32 17 4 18 3 19 1 20 2 21 8 22 9 23
REMARK SMILES IDX 10 24 11 25 22 26 23 27 24 28 28 29 25 30 27 31 26 32
REMARK H PARENT
ROOT
ATOM      1  C   UNL     1      17.123 -22.151   3.960  1.00  0.00    -0.028 A 
ATOM      2  C   UNL     1      16.605 -21.300   4.958  1.00  0.00    +0.018 A 
ATOM      3  C   UNL     1      16.021 -20.064   4.640  1.00  0.00    +0.057 A 
ATOM      4  C   UNL     1      15.978 -19.673   3.297  1.00  0.00    +0.028 A 
ATOM      5  C   UNL     1      16.501 -20.506   2.296  1.00  0.00    +0.060 A 
ATOM      6  C   UNL     1      16.425 -20.063   0.886  1.00  0.00    +0.281 C 
ATOM      7  O   UNL     1      15.521 -19.294   0.579  1.00  0.00    -0.267 OA
ATOM      8  N   UNL     1      17.392 -20.444  -0.001  1.00  0.00    -0.181 NA
ATOM      9  C   UNL     1      17.986 -21.594   0.046  1.00  0.00    +0.189 C 
ATOM     10  N   UNL     1      18.939 -21.934  -0.899  1.00  0.00    -0.345 N 
ATOM     11  C   UNL     1      19.149 -21.074  -2.078  1.00  0.00    +0.134 C 
ATOM     12  C   UNL     1      19.537 -21.897  -3.327  1.00  0.00    +0.106 C 
ATOM     13  N   UNL     1      20.690 -22.808  -3.167  1.00  0.00    -0.300 NA
ATOM     14  C   UNL     1      21.039 -22.988  -1.746  1.00  0.00    +0.106 C 
ATOM     15  C   UNL     1      19.802 -23.124  -0.833  1.00  0.00    +0.134 C 
ATOM     16  S   UNL     1      17.610 -22.791   1.283  1.00  0.00    -0.098 SA
ATOM     17  C   UNL     1      17.062 -21.744   2.609  1.00  0.00    +0.047 A 
ENDROOT
BRANCH   1  18
ATOM     18  C   UNL     1      17.702 -23.483   4.398  1.00  0.00    +0.052 C 
BRANCH  18  19
ATOM     19  C   UNL     1      19.191 -23.383   4.739  1.00  0.00    +0.125 C 
ATOM     20  N   UNL     1      20.586 -24.978   3.186  1.00  0.00    -0.198 NA
ATOM     21  C   UNL     1      19.975 -24.273   3.876  1.00  0.00    +0.062 C 
ENDBRANCH  18  19
ENDBRANCH   1  18
BRANCH   3  22
ATOM     22  C   UNL     1      15.487 -19.159   5.725  1.00  0.00    +0.416 C 
ATOM     23  F   UNL     1      14.549 -19.776   6.492  1.00  0.00    -0.166 F 
ATOM     24  F   UNL     1      14.892 -18.038   5.230  1.00  0.00    -0.166 F 
ATOM     25  F   UNL     1      16.452 -18.723   6.581  1.00  0.00    -0.166 F 
ENDBRANCH   3  22
BRANCH  13  26
ATOM     26  C   UNL     1      21.864 -22.408  -3.952  1.00  0.00    +0.088 C 
BRANCH  26  27
ATOM     27  C   UNL     1      21.511 -21.845  -5.348  1.00  0.00    +0.003 C 
ATOM     28  C   UNL     1      22.754 -21.186  -5.972  1.00  0.00    +0.005 C 
ATOM     29  C   UNL     1      20.955 -22.933  -6.283  1.00  0.00    +0.005 C 
ATOM     30  C   UNL     1      22.470 -20.648  -7.373  1.00  0.00    +0.000 C 
ATOM     31  C   UNL     1      20.679 -22.393  -7.685  1.00  0.00    +0.000 C 
ATOM     32  C   UNL     1      21.914 -21.732  -8.288  1.00  0.00    +0.000 C 
ENDBRANCH  26  27
ENDBRANCH  13  26
TORSDOF 5
ENDMDL
MODEL 7
REMARK VINA RESULT:    -9.049      1.958      2.716
REMARK INTER + INTRA:         -12.088
REMARK INTER:                 -11.702
REMARK INTRA:                  -0.386
REMARK UNBOUND:                -0.393
REMARK SMILES N#CCCc1cc(C(F)(F)F)cc2c(=O)nc(N3CCN(CC4CCCCC4)CC3)sc12
REMARK SMILES IDX 5 1 6 2 7 3 12 4 13 5 14 6 15 7 16 8 17 9 18 10 19 11 20 12
REMARK SMILES IDX 21 13 29 14 30 15 31 16 32 17 4 18 3 19 1 20 2 21 8 22 9 23
REMARK SMILES IDX 10 24 11 25 22 26 23 27 24 28 28 29 25 30 27 31 26 32
REMARK H PARENT
ROOT
ATOM      1  C   UNL     1      15.475 -20.167   3.934  1.00  0.00    -0.028 A 
ATOM      2  C   UNL     1      14.719 -18.980   3.853  1.00  0.00    +0.018 A 
ATOM      3  C   UNL     1      14.725 -18.182   2.699  1.00  0.00    +0.057 A 
ATOM      4  C   UNL     1      15.520 -18.578   1.619  1.00  0.00    +0.028 A 
ATOM      5  C   UNL     1      16.287 -19.752   1.691  1.00  0.00    +0.060 A 
ATOM      6  C   UNL     1      17.105 -20.144   0.523  1.00  0.00    +0.281 C 
ATOM      7  O   UNL     1      16.735 -19.767  -0.584  1.00  0.00    -0.267 OA
ATOM      8  N   UNL     1      18.274 -20.828   0.709  1.00  0.00    -0.181 NA
ATOM      9  C   UNL     1      18.445 -21.698   1.652  1.00  0.00    +0.189 C 
ATOM     10  N   UNL     1      19.645 -22.381   1.772  1.00  0.00    -0.345 N 
ATOM     11  C   UNL     1      20.666 -22.267   0.715  1.00  0.00    +0.134 C 
ATOM     12  C   UNL     1      21.463 -23.581   0.545  1.00  0.00    +0.106 C 
ATOM     13  N   UNL     1      22.078 -24.127   1.773  1.00  0.00    -0.300 NA
ATOM     14  C   UNL     1      21.535 -23.477   2.979  1.00  0.00    +0.106 C 
ATOM     15  C   UNL     1      20.012 -23.243   2.906  1.00  0.00    +0.134 C 
ATOM     16  S   UNL     1      17.177 -22.081   2.814  1.00  0.00    -0.098 SA
ATOM     17  C   UNL     1      16.265 -20.557   2.830  1.00  0.00    +0.047 A 
ENDROOT
BRANCH   1  18
ATOM     18  C   UNL     1      15.377 -20.982   5.210  1.00  0.00    +0.052 C 
BRANCH  18  19
ATOM     19  C   UNL     1      16.372 -20.514   6.274  1.00  0.00    +0.125 C 
ATOM     20  N   UNL     1      15.891 -18.015   6.928  1.00  0.00    -0.198 NA
ATOM     21  C   UNL     1      16.109 -19.118   6.642  1.00  0.00    +0.062 C 
ENDBRANCH  18  19
ENDBRANCH   1  18
BRANCH   3  22
ATOM     22  C   UNL     1      13.922 -16.904   2.638  1.00  0.00    +0.416 C 
ATOM     23  F   UNL     1      12.667 -17.110   2.157  1.00  0.00    -0.166 F 
ATOM     24  F   UNL     1      14.486 -15.965   1.829  1.00  0.00    -0.166 F 
ATOM     25  F   UNL     1      13.771 -16.308   3.853  1.00  0.00    -0.166 F 
ENDBRANCH   3  22
BRANCH  13  26
ATOM     26  C   UNL     1      23.545 -24.080   1.762  1.00  0.00    +0.088 C 
BRANCH  26  27
ATOM     27  C   UNL     1      24.124 -23.104   0.710  1.00  0.00    +0.003 C 
ATOM     28  C   UNL     1      24.782 -21.907   1.419  1.00  0.00    +0.005 C 
ATOM     29  C   UNL     1      25.134 -23.797  -0.221  1.00  0.00    +0.005 C 
ATOM     30  C   UNL     1      25.407 -20.931   0.426  1.00  0.00    +0.000 C 
ATOM     31  C   UNL     1      25.763 -22.816  -1.208  1.00  0.00    +0.000 C 
ATOM     32  C   UNL     1      26.401 -21.628  -0.495  1.00  0.00    +0.000 C 
ENDBRANCH  26  27
ENDBRANCH  13  26
TORSDOF 5
ENDMDL
MODEL 8
REMARK VINA RESULT:    -8.630      1.614      2.403
REMARK INTER + INTRA:         -11.545
REMARK INTER:                 -11.174
REMARK INTRA:                  -0.371
REMARK UNBOUND:                -0.393
REMARK SMILES N#CCCc1cc(C(F)(F)F)cc2c(=O)nc(N3CCN(CC4CCCCC4)CC3)sc12
REMARK SMILES IDX 5 1 6 2 7 3 12 4 13 5 14 6 15 7 16 8 17 9 18 10 19 11 20 12
REMARK SMILES IDX 21 13 29 14 30 15 31 16 32 17 4 18 3 19 1 20 2 21 8 22 9 23
REMARK SMILES IDX 10 24 11 25 22 26 23 27 24 28 28 29 25 30 27 31 26 32
REMARK H PARENT
ROOT
ATOM      1  C   UNL     1      15.333 -20.160   4.062  1.00  0.00    -0.028 A 
ATOM      2  C   UNL     1      14.626 -18.957   3.859  1.00  0.00    +0.018 A 
ATOM      3  C   UNL     1      14.775 -18.205   2.684  1.00  0.00    +0.057 A 
ATOM      4  C   UNL     1      15.665 -18.665   1.707  1.00  0.00    +0.028 A 
ATOM      5  C   UNL     1      16.383 -19.856   1.902  1.00  0.00    +0.060 A 
ATOM      6  C   UNL     1      17.304 -20.316   0.840  1.00  0.00    +0.281 C 
ATOM      7  O   UNL     1      17.062 -19.973  -0.313  1.00  0.00    -0.267 OA
ATOM      8  N   UNL     1      18.425 -21.023   1.171  1.00  0.00    -0.181 NA
ATOM      9  C   UNL     1      18.472 -21.861   2.158  1.00  0.00    +0.189 C 
ATOM     10  N   UNL     1      19.631 -22.570   2.427  1.00  0.00    -0.345 N 
ATOM     11  C   UNL     1      20.758 -22.527   1.478  1.00  0.00    +0.134 C 
ATOM     12  C   UNL     1      21.527 -23.867   1.439  1.00  0.00    +0.106 C 
ATOM     13  N   UNL     1      21.996 -24.381   2.744  1.00  0.00    -0.300 NA
ATOM     14  C   UNL     1      21.352 -23.669   3.863  1.00  0.00    +0.106 C 
ATOM     15  C   UNL     1      19.852 -23.397   3.623  1.00  0.00    +0.134 C 
ATOM     16  S   UNL     1      17.080 -22.162   3.195  1.00  0.00    -0.098 SA
ATOM     17  C   UNL     1      16.219 -20.615   3.061  1.00  0.00    +0.047 A 
ENDROOT
BRANCH   1  18
ATOM     18  C   UNL     1      15.079 -20.921   5.350  1.00  0.00    +0.052 C 
BRANCH  18  19
ATOM     19  C   UNL     1      16.080 -20.552   6.446  1.00  0.00    +0.125 C 
ATOM     20  N   UNL     1      15.993 -17.970   6.923  1.00  0.00    -0.198 NA
ATOM     21  C   UNL     1      16.037 -19.111   6.716  1.00  0.00    +0.062 C 
ENDBRANCH  18  19
ENDBRANCH   1  18
BRANCH   3  22
ATOM     22  C   UNL     1      14.023 -16.909   2.493  1.00  0.00    +0.416 C 
ATOM     23  F   UNL     1      13.921 -16.202   3.650  1.00  0.00    -0.166 F 
ATOM     24  F   UNL     1      12.748 -17.099   2.054  1.00  0.00    -0.166 F 
ATOM     25  F   UNL     1      14.609 -16.078   1.589  1.00  0.00    -0.166 F 
ENDBRANCH   3  22
BRANCH  13  26
ATOM     26  C   UNL     1      23.457 -24.374   2.884  1.00  0.00    +0.088 C 
BRANCH  26  27
ATOM     27  C   UNL     1      24.070 -25.786   3.025  1.00  0.00    +0.003 C 
ATOM     28  C   UNL     1      23.441 -26.507   4.231  1.00  0.00    +0.005 C 
ATOM     29  C   UNL     1      23.888 -26.622   1.746  1.00  0.00    +0.005 C 
ATOM     30  C   UNL     1      23.982 -27.925   4.392  1.00  0.00    +0.000 C 
ATOM     31  C   UNL     1      24.424 -28.043   1.914  1.00  0.00    +0.000 C 
ATOM     32  C   UNL     1      23.803 -28.743   3.118  1.00  0.00    +0.000 C 
ENDBRANCH  26  27
ENDBRANCH  13  26
TORSDOF 5
ENDMDL
MODEL 9
REMARK VINA RESULT:    -8.531      7.030     10.673
REMARK INTER + INTRA:         -11.418
REMARK INTER:                 -10.903
REMARK INTRA:                  -0.515
REMARK UNBOUND:                -0.393
REMARK SMILES N#CCCc1cc(C(F)(F)F)cc2c(=O)nc(N3CCN(CC4CCCCC4)CC3)sc12
REMARK SMILES IDX 5 1 6 2 7 3 12 4 13 5 14 6 15 7 16 8 17 9 18 10 19 11 20 12
REMARK SMILES IDX 21 13 29 14 30 15 31 16 32 17 4 18 3 19 1 20 2 21 8 22 9 23
REMARK SMILES IDX 10 24 11 25 22 26 23 27 24 28 28 29 25 30 27 31 26 32
REMARK H PARENT
ROOT
ATOM      1  C   UNL     1      21.454 -21.607  -5.512  1.00  0.00    -0.028 A 
ATOM      2  C   UNL     1      22.730 -21.713  -6.103  1.00  0.00    +0.018 A 
ATOM      3  C   UNL     1      23.798 -22.334  -5.439  1.00  0.00    +0.057 A 
ATOM      4  C   UNL     1      23.581 -22.837  -4.152  1.00  0.00    +0.028 A 
ATOM      5  C   UNL     1      22.318 -22.727  -3.548  1.00  0.00    +0.060 A 
ATOM      6  C   UNL     1      22.124 -23.283  -2.191  1.00  0.00    +0.281 C 
ATOM      7  O   UNL     1      22.846 -24.215  -1.848  1.00  0.00    -0.267 OA
ATOM      8  N   UNL     1      21.227 -22.704  -1.339  1.00  0.00    -0.181 NA
ATOM      9  C   UNL     1      20.117 -22.167  -1.735  1.00  0.00    +0.189 C 
ATOM     10  N   UNL     1      19.233 -21.620  -0.819  1.00  0.00    -0.345 N 
ATOM     11  C   UNL     1      19.453 -21.815   0.625  1.00  0.00    +0.134 C 
ATOM     12  C   UNL     1      18.119 -21.918   1.399  1.00  0.00    +0.106 C 
ATOM     13  N   UNL     1      17.162 -20.811   1.189  1.00  0.00    -0.300 NA
ATOM     14  C   UNL     1      17.543 -19.988   0.026  1.00  0.00    +0.106 C 
ATOM     15  C   UNL     1      18.045 -20.826  -1.169  1.00  0.00    +0.134 C 
ATOM     16  S   UNL     1      19.656 -22.117  -3.434  1.00  0.00    -0.098 SA
ATOM     17  C   UNL     1      21.250 -22.129  -4.216  1.00  0.00    +0.047 A 
ENDROOT
BRANCH   1  18
ATOM     18  C   UNL     1      20.352 -20.950  -6.322  1.00  0.00    +0.052 C 
BRANCH  18  19
ATOM     19  C   UNL     1      20.680 -20.905  -7.816  1.00  0.00    +0.125 C 
ATOM     20  N   UNL     1      19.408 -18.913  -8.964  1.00  0.00    -0.198 NA
ATOM     21  C   UNL     1      19.971 -19.795  -8.463  1.00  0.00    +0.062 C 
ENDBRANCH  18  19
ENDBRANCH   1  18
BRANCH   3  22
ATOM     22  C   UNL     1      25.163 -22.422  -6.081  1.00  0.00    +0.416 C 
ATOM     23  F   UNL     1      25.129 -22.094  -7.401  1.00  0.00    -0.166 F 
ATOM     24  F   UNL     1      25.695 -23.674  -6.018  1.00  0.00    -0.166 F 
ATOM     25  F   UNL     1      26.079 -21.596  -5.507  1.00  0.00    -0.166 F 
ENDBRANCH   3  22
BRANCH  13  26
ATOM     26  C   UNL     1      16.959 -19.979   2.381  1.00  0.00    +0.088 C 
BRANCH  26  27
ATOM     27  C   UNL     1      15.957 -20.584   3.392  1.00  0.00    +0.003 C 
ATOM     28  C   UNL     1      16.723 -21.337   4.494  1.00  0.00    +0.005 C 
ATOM     29  C   UNL     1      15.047 -19.508   4.011  1.00  0.00    +0.005 C 
ATOM     30  C   UNL     1      15.781 -21.920   5.544  1.00  0.00    +0.000 C 
ATOM     31  C   UNL     1      14.111 -20.094   5.066  1.00  0.00    +0.000 C 
ATOM     32  C   UNL     1      14.879 -20.849   6.146  1.00  0.00    +0.000 C 
ENDBRANCH  26  27
ENDBRANCH  13  26
TORSDOF 5
ENDMDL
