MODEL 1
REMARK VINA RESULT:    -8.914      0.000      0.000
REMARK INTER + INTRA:         -13.237
REMARK INTER:                 -12.301
REMARK INTRA:                  -0.935
REMARK UNBOUND:                -0.935
REMARK SMILES COc1ccc(CNc2nc3cc(C(F)(F)F)ccc3nc2C(=O)O)cc1
REMARK SMILES IDX 8 1 7 3 6 4 3 5 4 6 27 7 5 8 26 9 2 10 1 11 9 12 10 13 22 14
REMARK SMILES IDX 11 15 21 16 12 17 20 18 13 19 19 20 18 21 23 22 24 23 25 24
REMARK SMILES IDX 14 26 15 27 16 28 17 29
REMARK H PARENT 8 2 25 25
ROOT
ATOM      1  N   UNL     1      17.762 -21.014   0.953  1.00  0.00    -0.364 N 
ATOM      2  H   UNL     1      18.630 -20.705   1.396  1.00  0.00    +0.162 HD
ENDROOT
BRANCH   1   3
ATOM      3  C   UNL     1      17.315 -22.261   1.577  1.00  0.00    +0.150 C 
BRANCH   3   4
ATOM      4  C   UNL     1      18.456 -22.890   2.348  1.00  0.00    -0.029 A 
ATOM      5  C   UNL     1      20.578 -24.013   3.822  1.00  0.00    +0.118 A 
ATOM      6  C   UNL     1      20.825 -23.321   2.634  1.00  0.00    +0.047 A 
ATOM      7  C   UNL     1      19.265 -24.134   4.279  1.00  0.00    +0.047 A 
ATOM      8  C   UNL     1      19.776 -22.759   1.903  1.00  0.00    +0.009 A 
ATOM      9  C   UNL     1      18.212 -23.573   3.549  1.00  0.00    +0.009 A 
BRANCH   5  10
ATOM     10  O   UNL     1      21.693 -24.510   4.437  1.00  0.00    -0.497 OA
ATOM     11  C   UNL     1      22.905 -23.790   4.249  1.00  0.00    +0.278 C 
ENDBRANCH   5  10
ENDBRANCH   3   4
ENDBRANCH   1   3
BRANCH   1  12
ATOM     12  C   UNL     1      16.894 -19.937   1.115  1.00  0.00    +0.160 A 
ATOM     13  N   UNL     1      16.280 -19.941   2.325  1.00  0.00    -0.227 NA
ATOM     14  C   UNL     1      16.647 -18.901   0.206  1.00  0.00    +0.191 A 
ATOM     15  C   UNL     1      15.425 -18.942   2.607  1.00  0.00    +0.092 A 
ATOM     16  N   UNL     1      15.771 -17.886   0.483  1.00  0.00    -0.236 NA
ATOM     17  C   UNL     1      14.778 -18.923   3.837  1.00  0.00    +0.043 A 
ATOM     18  C   UNL     1      15.168 -17.910   1.678  1.00  0.00    +0.090 A 
ATOM     19  C   UNL     1      13.869 -17.910   4.181  1.00  0.00    +0.058 A 
ATOM     20  C   UNL     1      14.276 -16.902   2.019  1.00  0.00    +0.031 A 
ATOM     21  C   UNL     1      13.629 -16.890   3.258  1.00  0.00    +0.015 A 
BRANCH  14  22
ATOM     22  C   UNL     1      17.348 -18.803  -1.114  1.00  0.00    +0.358 C 
ATOM     23  O   UNL     1      18.065 -17.910  -1.527  1.00  0.00    -0.244 OA
BRANCH  22  24
ATOM     24  O   UNL     1      17.121 -19.887  -1.893  1.00  0.00    -0.476 OA
ATOM     25  H   UNL     1      17.817 -19.844  -2.580  1.00  0.00    +0.297 HD
ENDBRANCH  22  24
ENDBRANCH  14  22
BRANCH  19  26
ATOM     26  C   UNL     1      13.202 -17.914   5.535  1.00  0.00    +0.416 C 
ATOM     27  F   UNL     1      14.059 -18.227   6.545  1.00  0.00    -0.166 F 
ATOM     28  F   UNL     1      12.179 -18.808   5.624  1.00  0.00    -0.166 F 
ATOM     29  F   UNL     1      12.673 -16.701   5.851  1.00  0.00    -0.166 F 
ENDBRANCH  19  26
ENDBRANCH   1  12
TORSDOF 7
ENDMDL
MODEL 2
REMARK VINA RESULT:    -8.839      1.977      2.597
REMARK INTER + INTRA:         -13.133
REMARK INTER:                 -12.227
REMARK INTRA:                  -0.906
REMARK UNBOUND:                -0.935
REMARK SMILES COc1ccc(CNc2nc3cc(C(F)(F)F)ccc3nc2C(=O)O)cc1
REMARK SMILES IDX 8 1 7 3 6 4 3 5 4 6 27 7 5 8 26 9 2 10 1 11 9 12 10 13 22 14
REMARK SMILES IDX 11 15 21 16 12 17 20 18 13 19 19 20 18 21 23 22 24 23 25 24
REMARK SMILES IDX 14 26 15 27 16 28 17 29
REMARK H PARENT 8 2 25 25
ROOT
ATOM      1  N   UNL     1      18.002 -20.889   0.866  1.00  0.00    -0.364 N 
ATOM      2  H   UNL     1      18.886 -20.401   0.708  1.00  0.00    +0.162 HD
ENDROOT
BRANCH   1   3
ATOM      3  C   UNL     1      18.146 -21.799   2.004  1.00  0.00    +0.150 C 
BRANCH   3   4
ATOM      4  C   UNL     1      17.857 -23.220   1.569  1.00  0.00    -0.029 A 
ATOM      5  C   UNL     1      17.264 -25.861   0.791  1.00  0.00    +0.118 A 
ATOM      6  C   UNL     1      18.153 -25.611   1.840  1.00  0.00    +0.047 A 
ATOM      7  C   UNL     1      16.663 -24.787   0.137  1.00  0.00    +0.047 A 
ATOM      8  C   UNL     1      18.445 -24.303   2.231  1.00  0.00    +0.009 A 
ATOM      9  C   UNL     1      16.955 -23.475   0.526  1.00  0.00    +0.009 A 
BRANCH   5  10
ATOM     10  O   UNL     1      17.068 -27.186   0.513  1.00  0.00    -0.497 OA
ATOM     11  C   UNL     1      17.076 -28.083   1.616  1.00  0.00    +0.278 C 
ENDBRANCH   5  10
ENDBRANCH   3   4
ENDBRANCH   1   3
BRANCH   1  12
ATOM     12  C   UNL     1      17.076 -19.865   1.052  1.00  0.00    +0.160 A 
ATOM     13  N   UNL     1      16.498 -19.901   2.278  1.00  0.00    -0.227 NA
ATOM     14  C   UNL     1      16.743 -18.847   0.150  1.00  0.00    +0.191 A 
ATOM     15  C   UNL     1      15.594 -18.954   2.584  1.00  0.00    +0.092 A 
ATOM     16  N   UNL     1      15.817 -17.885   0.450  1.00  0.00    -0.236 NA
ATOM     17  C   UNL     1      14.982 -18.971   3.832  1.00  0.00    +0.043 A 
ATOM     18  C   UNL     1      15.251 -17.941   1.662  1.00  0.00    +0.090 A 
ATOM     19  C   UNL     1      14.026 -18.012   4.201  1.00  0.00    +0.058 A 
ATOM     20  C   UNL     1      14.310 -16.987   2.027  1.00  0.00    +0.031 A 
ATOM     21  C   UNL     1      13.699 -17.011   3.284  1.00  0.00    +0.015 A 
BRANCH  14  22
ATOM     22  C   UNL     1      17.399 -18.711  -1.191  1.00  0.00    +0.358 C 
ATOM     23  O   UNL     1      18.100 -17.805  -1.603  1.00  0.00    -0.244 OA
BRANCH  22  24
ATOM     24  O   UNL     1      17.150 -19.775  -1.990  1.00  0.00    -0.476 OA
ATOM     25  H   UNL     1      17.947 -19.850  -2.552  1.00  0.00    +0.297 HD
ENDBRANCH  22  24
ENDBRANCH  14  22
BRANCH  19  26
ATOM     26  C   UNL     1      13.399 -18.052   5.573  1.00  0.00    +0.416 C 
ATOM     27  F   UNL     1      14.313 -18.224   6.566  1.00  0.00    -0.166 F 
ATOM     28  F   UNL     1      12.495 -19.060   5.719  1.00  0.00    -0.166 F 
ATOM     29  F   UNL     1      12.733 -16.903   5.868  1.00  0.00    -0.166 F 
ENDBRANCH  19  26
ENDBRANCH   1  12
TORSDOF 7
ENDMDL
MODEL 3
REMARK VINA RESULT:    -8.707      2.405      5.214
REMARK INTER + INTRA:         -12.950
REMARK INTER:                 -12.042
REMARK INTRA:                  -0.908
REMARK UNBOUND:                -0.935
REMARK SMILES COc1ccc(CNc2nc3cc(C(F)(F)F)ccc3nc2C(=O)O)cc1
REMARK SMILES IDX 8 1 7 3 6 4 3 5 4 6 27 7 5 8 26 9 2 10 1 11 9 12 10 13 22 14
REMARK SMILES IDX 11 15 21 16 12 17 20 18 13 19 19 20 18 21 23 22 24 23 25 24
REMARK SMILES IDX 14 26 15 27 16 28 17 29
REMARK H PARENT 8 2 25 25
ROOT
ATOM      1  N   UNL     1      17.742 -22.107   2.051  1.00  0.00    -0.364 N 
ATOM      2  H   UNL     1      18.012 -23.047   2.348  1.00  0.00    +0.162 HD
ENDROOT
BRANCH   1   3
ATOM      3  C   UNL     1      16.749 -22.203   0.979  1.00  0.00    +0.150 C 
BRANCH   3   4
ATOM      4  C   UNL     1      17.375 -21.811  -0.342  1.00  0.00    -0.029 A 
ATOM      5  C   UNL     1      18.490 -21.101  -2.829  1.00  0.00    +0.118 A 
ATOM      6  C   UNL     1      18.841 -22.303  -2.210  1.00  0.00    +0.047 A 
ATOM      7  C   UNL     1      17.572 -20.257  -2.206  1.00  0.00    +0.047 A 
ATOM      8  C   UNL     1      18.286 -22.661  -0.979  1.00  0.00    +0.009 A 
ATOM      9  C   UNL     1      17.015 -20.612  -0.972  1.00  0.00    +0.009 A 
BRANCH   5  10
ATOM     10  O   UNL     1      19.106 -20.876  -4.030  1.00  0.00    -0.497 OA
ATOM     11  C   UNL     1      20.099 -21.812  -4.429  1.00  0.00    +0.278 C 
ENDBRANCH   5  10
ENDBRANCH   3   4
ENDBRANCH   1   3
BRANCH   1  12
ATOM     12  C   UNL     1      17.283 -21.500   3.218  1.00  0.00    +0.160 A 
ATOM     13  N   UNL     1      16.311 -20.585   2.982  1.00  0.00    -0.227 NA
ATOM     14  C   UNL     1      17.691 -21.768   4.531  1.00  0.00    +0.191 A 
ATOM     15  C   UNL     1      15.776 -19.938   4.033  1.00  0.00    +0.092 A 
ATOM     16  N   UNL     1      17.159 -21.107   5.605  1.00  0.00    -0.236 NA
ATOM     17  C   UNL     1      14.783 -18.991   3.820  1.00  0.00    +0.043 A 
ATOM     18  C   UNL     1      16.206 -20.201   5.352  1.00  0.00    +0.090 A 
ATOM     19  C   UNL     1      14.196 -18.280   4.879  1.00  0.00    +0.058 A 
ATOM     20  C   UNL     1      15.623 -19.505   6.403  1.00  0.00    +0.031 A 
ATOM     21  C   UNL     1      14.623 -18.553   6.180  1.00  0.00    +0.015 A 
BRANCH  14  22
ATOM     22  C   UNL     1      18.708 -22.817   4.861  1.00  0.00    +0.358 C 
ATOM     23  O   UNL     1      18.785 -23.956   4.438  1.00  0.00    -0.244 OA
BRANCH  22  24
ATOM     24  O   UNL     1      19.637 -22.369   5.737  1.00  0.00    -0.476 OA
ATOM     25  H   UNL     1      19.977 -21.545   5.332  1.00  0.00    +0.297 HD
ENDBRANCH  22  24
ENDBRANCH  14  22
BRANCH  19  26
ATOM     26  C   UNL     1      13.105 -17.274   4.608  1.00  0.00    +0.416 C 
ATOM     27  F   UNL     1      11.857 -17.809   4.708  1.00  0.00    -0.166 F 
ATOM     28  F   UNL     1      13.178 -16.728   3.362  1.00  0.00    -0.166 F 
ATOM     29  F   UNL     1      13.139 -16.230   5.480  1.00  0.00    -0.166 F 
ENDBRANCH  19  26
ENDBRANCH   1  12
TORSDOF 7
ENDMDL
MODEL 4
REMARK VINA RESULT:    -8.623      4.170      7.361
REMARK INTER + INTRA:         -12.834
REMARK INTER:                 -11.943
REMARK INTRA:                  -0.892
REMARK UNBOUND:                -0.935
REMARK SMILES COc1ccc(CNc2nc3cc(C(F)(F)F)ccc3nc2C(=O)O)cc1
REMARK SMILES IDX 8 1 7 3 6 4 3 5 4 6 27 7 5 8 26 9 2 10 1 11 9 12 10 13 22 14
REMARK SMILES IDX 11 15 21 16 12 17 20 18 13 19 19 20 18 21 23 22 24 23 25 24
REMARK SMILES IDX 14 26 15 27 16 28 17 29
REMARK H PARENT 8 2 25 25
ROOT
ATOM      1  N   UNL     1      17.942 -22.136   5.013  1.00  0.00    -0.364 N 
ATOM      2  H   UNL     1      18.152 -21.136   5.036  1.00  0.00    +0.162 HD
ENDROOT
BRANCH   1   3
ATOM      3  C   UNL     1      16.571 -22.356   5.478  1.00  0.00    +0.150 C 
BRANCH   3   4
ATOM      4  C   UNL     1      15.861 -21.029   5.638  1.00  0.00    -0.029 A 
ATOM      5  C   UNL     1      14.529 -18.573   5.994  1.00  0.00    +0.118 A 
ATOM      6  C   UNL     1      13.880 -19.653   5.390  1.00  0.00    +0.047 A 
ATOM      7  C   UNL     1      15.845 -18.726   6.430  1.00  0.00    +0.047 A 
ATOM      8  C   UNL     1      14.536 -20.873   5.216  1.00  0.00    +0.009 A 
ATOM      9  C   UNL     1      16.505 -19.947   6.256  1.00  0.00    +0.009 A 
BRANCH   5  10
ATOM     10  O   UNL     1      13.771 -17.439   6.103  1.00  0.00    -0.497 OA
ATOM     11  C   UNL     1      12.871 -17.163   5.038  1.00  0.00    +0.278 C 
ENDBRANCH   5  10
ENDBRANCH   3   4
ENDBRANCH   1   3
BRANCH   1  12
ATOM     12  C   UNL     1      18.175 -22.503   3.689  1.00  0.00    +0.160 A 
ATOM     13  N   UNL     1      17.275 -21.959   2.832  1.00  0.00    -0.227 NA
ATOM     14  C   UNL     1      19.215 -23.303   3.200  1.00  0.00    +0.191 A 
ATOM     15  C   UNL     1      17.402 -22.229   1.520  1.00  0.00    +0.092 A 
ATOM     16  N   UNL     1      19.345 -23.590   1.868  1.00  0.00    -0.236 NA
ATOM     17  C   UNL     1      16.491 -21.689   0.621  1.00  0.00    +0.043 A 
ATOM     18  C   UNL     1      18.443 -23.052   1.037  1.00  0.00    +0.090 A 
ATOM     19  C   UNL     1      16.571 -21.945  -0.757  1.00  0.00    +0.058 A 
ATOM     20  C   UNL     1      18.529 -23.300  -0.326  1.00  0.00    +0.031 A 
ATOM     21  C   UNL     1      17.608 -22.754  -1.225  1.00  0.00    +0.015 A 
BRANCH  14  22
ATOM     22  C   UNL     1      20.280 -23.873   4.087  1.00  0.00    +0.358 C 
ATOM     23  O   UNL     1      20.827 -24.958   4.013  1.00  0.00    -0.244 OA
BRANCH  22  24
ATOM     24  O   UNL     1      20.642 -23.011   5.065  1.00  0.00    -0.476 OA
ATOM     25  H   UNL     1      20.127 -22.200   4.880  1.00  0.00    +0.297 HD
ENDBRANCH  22  24
ENDBRANCH  14  22
BRANCH  19  26
ATOM     26  C   UNL     1      15.574 -21.324  -1.705  1.00  0.00    +0.416 C 
ATOM     27  F   UNL     1      15.326 -20.015  -1.427  1.00  0.00    -0.166 F 
ATOM     28  F   UNL     1      14.362 -21.945  -1.689  1.00  0.00    -0.166 F 
ATOM     29  F   UNL     1      16.000 -21.361  -2.997  1.00  0.00    -0.166 F 
ENDBRANCH  19  26
ENDBRANCH   1  12
TORSDOF 7
ENDMDL
MODEL 5
REMARK VINA RESULT:    -8.174      2.726      4.572
REMARK INTER + INTRA:         -12.215
REMARK INTER:                 -11.336
REMARK INTRA:                  -0.878
REMARK UNBOUND:                -0.935
REMARK SMILES COc1ccc(CNc2nc3cc(C(F)(F)F)ccc3nc2C(=O)O)cc1
REMARK SMILES IDX 8 1 7 3 6 4 3 5 4 6 27 7 5 8 26 9 2 10 1 11 9 12 10 13 22 14
REMARK SMILES IDX 11 15 21 16 12 17 20 18 13 19 19 20 18 21 23 22 24 23 25 24
REMARK SMILES IDX 14 26 15 27 16 28 17 29
REMARK H PARENT 8 2 25 25
ROOT
ATOM      1  N   UNL     1      17.545 -22.040   1.924  1.00  0.00    -0.364 N 
ATOM      2  H   UNL     1      16.719 -22.552   1.609  1.00  0.00    +0.162 HD
ENDROOT
BRANCH   1   3
ATOM      3  C   UNL     1      17.971 -21.111   0.875  1.00  0.00    +0.150 C 
BRANCH   3   4
ATOM      4  C   UNL     1      19.093 -21.726   0.066  1.00  0.00    -0.029 A 
ATOM      5  C   UNL     1      21.218 -22.824  -1.422  1.00  0.00    +0.118 A 
ATOM      6  C   UNL     1      20.219 -22.078  -2.053  1.00  0.00    +0.047 A 
ATOM      7  C   UNL     1      21.158 -23.012  -0.041  1.00  0.00    +0.047 A 
ATOM      8  C   UNL     1      19.166 -21.529  -1.317  1.00  0.00    +0.009 A 
ATOM      9  C   UNL     1      20.104 -22.463   0.698  1.00  0.00    +0.009 A 
BRANCH   5  10
ATOM     10  O   UNL     1      22.188 -23.302  -2.259  1.00  0.00    -0.497 OA
ATOM     11  C   UNL     1      22.574 -22.465  -3.341  1.00  0.00    +0.278 C 
ENDBRANCH   5  10
ENDBRANCH   3   4
ENDBRANCH   1   3
BRANCH   1  12
ATOM     12  C   UNL     1      17.136 -21.432   3.110  1.00  0.00    +0.160 A 
ATOM     13  N   UNL     1      16.161 -20.511   2.913  1.00  0.00    -0.227 NA
ATOM     14  C   UNL     1      17.594 -21.704   4.405  1.00  0.00    +0.191 A 
ATOM     15  C   UNL     1      15.672 -19.863   3.986  1.00  0.00    +0.092 A 
ATOM     16  N   UNL     1      17.109 -21.042   5.500  1.00  0.00    -0.236 NA
ATOM     17  C   UNL     1      14.676 -18.910   3.813  1.00  0.00    +0.043 A 
ATOM     18  C   UNL     1      16.151 -20.130   5.287  1.00  0.00    +0.090 A 
ATOM     19  C   UNL     1      14.136 -18.197   4.895  1.00  0.00    +0.058 A 
ATOM     20  C   UNL     1      15.614 -19.433   6.360  1.00  0.00    +0.031 A 
ATOM     21  C   UNL     1      14.612 -18.475   6.179  1.00  0.00    +0.015 A 
BRANCH  14  22
ATOM     22  C   UNL     1      18.617 -22.760   4.694  1.00  0.00    +0.358 C 
ATOM     23  O   UNL     1      18.726 -23.865   4.194  1.00  0.00    -0.244 OA
BRANCH  22  24
ATOM     24  O   UNL     1      19.511 -22.362   5.628  1.00  0.00    -0.476 OA
ATOM     25  H   UNL     1      19.113 -22.637   6.479  1.00  0.00    +0.297 HD
ENDBRANCH  22  24
ENDBRANCH  14  22
BRANCH  19  26
ATOM     26  C   UNL     1      13.040 -17.184   4.669  1.00  0.00    +0.416 C 
ATOM     27  F   UNL     1      13.097 -16.612   3.436  1.00  0.00    -0.166 F 
ATOM     28  F   UNL     1      13.072 -16.154   5.560  1.00  0.00    -0.166 F 
ATOM     29  F   UNL     1      11.801 -17.735   4.773  1.00  0.00    -0.166 F 
ENDBRANCH  19  26
ENDBRANCH   1  12
TORSDOF 7
ENDMDL
MODEL 6
REMARK VINA RESULT:    -7.942      1.681      2.167
REMARK INTER + INTRA:         -11.896
REMARK INTER:                 -10.921
REMARK INTRA:                  -0.975
REMARK UNBOUND:                -0.935
REMARK SMILES COc1ccc(CNc2nc3cc(C(F)(F)F)ccc3nc2C(=O)O)cc1
REMARK SMILES IDX 8 1 7 3 6 4 3 5 4 6 27 7 5 8 26 9 2 10 1 11 9 12 10 13 22 14
REMARK SMILES IDX 11 15 21 16 12 17 20 18 13 19 19 20 18 21 23 22 24 23 25 24
REMARK SMILES IDX 14 26 15 27 16 28 17 29
REMARK H PARENT 8 2 25 25
ROOT
ATOM      1  N   UNL     1      18.770 -21.250  -0.034  1.00  0.00    -0.364 N 
ATOM      2  H   UNL     1      19.515 -21.184   0.663  1.00  0.00    +0.162 HD
ENDROOT
BRANCH   1   3
ATOM      3  C   UNL     1      18.381 -22.652  -0.200  1.00  0.00    +0.150 C 
BRANCH   3   4
ATOM      4  C   UNL     1      19.393 -23.551   0.478  1.00  0.00    -0.029 A 
ATOM      5  C   UNL     1      21.230 -25.264   1.753  1.00  0.00    +0.118 A 
ATOM      6  C   UNL     1      20.770 -24.111   2.394  1.00  0.00    +0.047 A 
ATOM      7  C   UNL     1      20.762 -25.566   0.475  1.00  0.00    +0.047 A 
ATOM      8  C   UNL     1      19.856 -23.262   1.766  1.00  0.00    +0.009 A 
ATOM      9  C   UNL     1      19.846 -24.717  -0.157  1.00  0.00    +0.009 A 
BRANCH   5  10
ATOM     10  O   UNL     1      22.120 -26.005   2.480  1.00  0.00    -0.497 OA
ATOM     11  C   UNL     1      22.246 -25.686   3.860  1.00  0.00    +0.278 C 
ENDBRANCH   5  10
ENDBRANCH   3   4
ENDBRANCH   1   3
BRANCH   1  12
ATOM     12  C   UNL     1      17.766 -20.421   0.462  1.00  0.00    +0.160 A 
ATOM     13  N   UNL     1      17.384 -20.760   1.718  1.00  0.00    -0.227 NA
ATOM     14  C   UNL     1      17.184 -19.317  -0.175  1.00  0.00    +0.191 A 
ATOM     15  C   UNL     1      16.428 -20.024   2.313  1.00  0.00    +0.092 A 
ATOM     16  N   UNL     1      16.204 -18.570   0.419  1.00  0.00    -0.236 NA
ATOM     17  C   UNL     1      16.013 -20.352   3.597  1.00  0.00    +0.043 A 
ATOM     18  C   UNL     1      15.833 -18.924   1.657  1.00  0.00    +0.090 A 
ATOM     19  C   UNL     1      15.013 -19.625   4.262  1.00  0.00    +0.058 A 
ATOM     20  C   UNL     1      14.849 -18.198   2.314  1.00  0.00    +0.031 A 
ATOM     21  C   UNL     1      14.437 -18.534   3.607  1.00  0.00    +0.015 A 
BRANCH  14  22
ATOM     22  C   UNL     1      17.614 -18.851  -1.532  1.00  0.00    +0.358 C 
ATOM     23  O   UNL     1      17.991 -17.742  -1.868  1.00  0.00    -0.244 OA
BRANCH  22  24
ATOM     24  O   UNL     1      17.568 -19.843  -2.451  1.00  0.00    -0.476 OA
ATOM     25  H   UNL     1      16.931 -19.525  -3.122  1.00  0.00    +0.297 HD
ENDBRANCH  22  24
ENDBRANCH  14  22
BRANCH  19  26
ATOM     26  C   UNL     1      14.604 -19.999   5.665  1.00  0.00    +0.416 C 
ATOM     27  F   UNL     1      14.146 -21.277   5.758  1.00  0.00    -0.166 F 
ATOM     28  F   UNL     1      13.611 -19.211   6.161  1.00  0.00    -0.166 F 
ATOM     29  F   UNL     1      15.637 -19.903   6.545  1.00  0.00    -0.166 F 
ENDBRANCH  19  26
ENDBRANCH   1  12
TORSDOF 7
ENDMDL
MODEL 7
REMARK VINA RESULT:    -7.911      3.657      5.176
REMARK INTER + INTRA:         -11.852
REMARK INTER:                 -10.897
REMARK INTRA:                  -0.955
REMARK UNBOUND:                -0.935
REMARK SMILES COc1ccc(CNc2nc3cc(C(F)(F)F)ccc3nc2C(=O)O)cc1
REMARK SMILES IDX 8 1 7 3 6 4 3 5 4 6 27 7 5 8 26 9 2 10 1 11 9 12 10 13 22 14
REMARK SMILES IDX 11 15 21 16 12 17 20 18 13 19 19 20 18 21 23 22 24 23 25 24
REMARK SMILES IDX 14 26 15 27 16 28 17 29
REMARK H PARENT 8 2 25 25
ROOT
ATOM      1  N   UNL     1      18.186 -22.227  -0.782  1.00  0.00    -0.364 N 
ATOM      2  H   UNL     1      17.974 -21.818  -1.695  1.00  0.00    +0.162 HD
ENDROOT
BRANCH   1   3
ATOM      3  C   UNL     1      19.637 -22.349  -0.629  1.00  0.00    +0.150 C 
BRANCH   3   4
ATOM      4  C   UNL     1      20.304 -22.313  -1.988  1.00  0.00    -0.029 A 
ATOM      5  C   UNL     1      21.567 -22.189  -4.502  1.00  0.00    +0.118 A 
ATOM      6  C   UNL     1      20.200 -21.929  -4.380  1.00  0.00    +0.047 A 
ATOM      7  C   UNL     1      22.306 -22.502  -3.361  1.00  0.00    +0.047 A 
ATOM      8  C   UNL     1      19.572 -21.985  -3.134  1.00  0.00    +0.009 A 
ATOM      9  C   UNL     1      21.679 -22.560  -2.112  1.00  0.00    +0.009 A 
BRANCH   5  10
ATOM     10  O   UNL     1      22.054 -22.099  -5.777  1.00  0.00    -0.497 OA
ATOM     11  C   UNL     1      22.160 -20.795  -6.334  1.00  0.00    +0.278 C 
ENDBRANCH   5  10
ENDBRANCH   3   4
ENDBRANCH   1   3
BRANCH   1  12
ATOM     12  C   UNL     1      17.574 -21.365   0.126  1.00  0.00    +0.160 A 
ATOM     13  N   UNL     1      17.404 -21.931   1.346  1.00  0.00    -0.227 NA
ATOM     14  C   UNL     1      17.181 -20.039  -0.094  1.00  0.00    +0.191 A 
ATOM     15  C   UNL     1      16.834 -21.193   2.316  1.00  0.00    +0.092 A 
ATOM     16  N   UNL     1      16.592 -19.285   0.884  1.00  0.00    -0.236 NA
ATOM     17  C   UNL     1      16.642 -21.749   3.575  1.00  0.00    +0.043 A 
ATOM     18  C   UNL     1      16.424 -19.862   2.081  1.00  0.00    +0.090 A 
ATOM     19  C   UNL     1      16.045 -21.028   4.621  1.00  0.00    +0.058 A 
ATOM     20  C   UNL     1      15.840 -19.143   3.116  1.00  0.00    +0.031 A 
ATOM     21  C   UNL     1      15.651 -19.710   4.380  1.00  0.00    +0.015 A 
BRANCH  14  22
ATOM     22  C   UNL     1      17.409 -19.336  -1.398  1.00  0.00    +0.358 C 
ATOM     23  O   UNL     1      17.948 -18.263  -1.595  1.00  0.00    -0.244 OA
BRANCH  22  24
ATOM     24  O   UNL     1      16.942 -20.049  -2.449  1.00  0.00    -0.476 OA
ATOM     25  H   UNL     1      16.127 -20.475  -2.113  1.00  0.00    +0.297 HD
ENDBRANCH  22  24
ENDBRANCH  14  22
BRANCH  19  26
ATOM     26  C   UNL     1      15.873 -21.660   5.980  1.00  0.00    +0.416 C 
ATOM     27  F   UNL     1      14.568 -21.867   6.304  1.00  0.00    -0.166 F 
ATOM     28  F   UNL     1      16.393 -20.907   6.990  1.00  0.00    -0.166 F 
ATOM     29  F   UNL     1      16.480 -22.874   6.064  1.00  0.00    -0.166 F 
ENDBRANCH  19  26
ENDBRANCH   1  12
TORSDOF 7
ENDMDL
MODEL 8
REMARK VINA RESULT:    -7.903      2.728      4.720
REMARK INTER + INTRA:         -11.842
REMARK INTER:                 -10.834
REMARK INTRA:                  -1.007
REMARK UNBOUND:                -0.935
REMARK SMILES COc1ccc(CNc2nc3cc(C(F)(F)F)ccc3nc2C(=O)O)cc1
REMARK SMILES IDX 8 1 7 3 6 4 3 5 4 6 27 7 5 8 26 9 2 10 1 11 9 12 10 13 22 14
REMARK SMILES IDX 11 15 21 16 12 17 20 18 13 19 19 20 18 21 23 22 24 23 25 24
REMARK SMILES IDX 14 26 15 27 16 28 17 29
REMARK H PARENT 8 2 25 25
ROOT
ATOM      1  N   UNL     1      18.139 -20.021   0.995  1.00  0.00    -0.364 N 
ATOM      2  H   UNL     1      18.958 -20.633   0.999  1.00  0.00    +0.162 HD
ENDROOT
BRANCH   1   3
ATOM      3  C   UNL     1      17.392 -20.217  -0.249  1.00  0.00    +0.150 C 
BRANCH   3   4
ATOM      4  C   UNL     1      18.263 -20.919  -1.268  1.00  0.00    -0.029 A 
ATOM      5  C   UNL     1      19.840 -22.268  -3.173  1.00  0.00    +0.118 A 
ATOM      6  C   UNL     1      20.083 -22.429  -1.807  1.00  0.00    +0.047 A 
ATOM      7  C   UNL     1      18.800 -21.437  -3.587  1.00  0.00    +0.047 A 
ATOM      8  C   UNL     1      19.299 -21.766  -0.860  1.00  0.00    +0.009 A 
ATOM      9  C   UNL     1      18.014 -20.769  -2.640  1.00  0.00    +0.009 A 
BRANCH   5  10
ATOM     10  O   UNL     1      20.679 -22.975  -3.989  1.00  0.00    -0.497 OA
ATOM     11  C   UNL     1      21.103 -24.250  -3.525  1.00  0.00    +0.278 C 
ENDBRANCH   5  10
ENDBRANCH   3   4
ENDBRANCH   1   3
BRANCH   1  12
ATOM     12  C   UNL     1      17.447 -20.371   2.152  1.00  0.00    +0.160 A 
ATOM     13  N   UNL     1      16.438 -19.510   2.436  1.00  0.00    -0.227 NA
ATOM     14  C   UNL     1      17.669 -21.485   2.971  1.00  0.00    +0.191 A 
ATOM     15  C   UNL     1      15.684 -19.749   3.525  1.00  0.00    +0.092 A 
ATOM     16  N   UNL     1      16.914 -21.730   4.086  1.00  0.00    -0.236 NA
ATOM     17  C   UNL     1      14.648 -18.881   3.843  1.00  0.00    +0.043 A 
ATOM     18  C   UNL     1      15.927 -20.865   4.355  1.00  0.00    +0.090 A 
ATOM     19  C   UNL     1      13.836 -19.077   4.971  1.00  0.00    +0.058 A 
ATOM     20  C   UNL     1      15.122 -21.066   5.468  1.00  0.00    +0.031 A 
ATOM     21  C   UNL     1      14.080 -20.188   5.781  1.00  0.00    +0.015 A 
BRANCH  14  22
ATOM     22  C   UNL     1      18.721 -22.510   2.670  1.00  0.00    +0.358 C 
ATOM     23  O   UNL     1      18.582 -23.704   2.479  1.00  0.00    -0.244 OA
BRANCH  22  24
ATOM     24  O   UNL     1      19.958 -21.965   2.602  1.00  0.00    -0.476 OA
ATOM     25  H   UNL     1      19.810 -21.066   2.244  1.00  0.00    +0.297 HD
ENDBRANCH  22  24
ENDBRANCH  14  22
BRANCH  19  26
ATOM     26  C   UNL     1      12.706 -18.122   5.271  1.00  0.00    +0.416 C 
ATOM     27  F   UNL     1      11.522 -18.758   5.485  1.00  0.00    -0.166 F 
ATOM     28  F   UNL     1      12.476 -17.233   4.265  1.00  0.00    -0.166 F 
ATOM     29  F   UNL     1      12.942 -17.379   6.385  1.00  0.00    -0.166 F 
ENDBRANCH  19  26
ENDBRANCH   1  12
TORSDOF 7
ENDMDL
MODEL 9
REMARK VINA RESULT:    -7.902      4.504      7.463
REMARK INTER + INTRA:         -11.840
REMARK INTER:                 -11.104
REMARK INTRA:                  -0.736
REMARK UNBOUND:                -0.935
REMARK SMILES COc1ccc(CNc2nc3cc(C(F)(F)F)ccc3nc2C(=O)O)cc1
REMARK SMILES IDX 8 1 7 3 6 4 3 5 4 6 27 7 5 8 26 9 2 10 1 11 9 12 10 13 22 14
REMARK SMILES IDX 11 15 21 16 12 17 20 18 13 19 19 20 18 21 23 22 24 23 25 24
REMARK SMILES IDX 14 26 15 27 16 28 17 29
REMARK H PARENT 8 2 25 25
ROOT
ATOM      1  N   UNL     1      15.736 -19.428  -0.134  1.00  0.00    -0.364 N 
ATOM      2  H   UNL     1      14.871 -19.825   0.240  1.00  0.00    +0.162 HD
ENDROOT
BRANCH   1   3
ATOM      3  C   UNL     1      16.283 -18.465   0.824  1.00  0.00    +0.150 C 
BRANCH   3   4
ATOM      4  C   UNL     1      15.554 -18.580   2.145  1.00  0.00    -0.029 A 
ATOM      5  C   UNL     1      14.227 -18.746   4.625  1.00  0.00    +0.118 A 
ATOM      6  C   UNL     1      15.309 -19.583   4.340  1.00  0.00    +0.047 A 
ATOM      7  C   UNL     1      13.815 -17.817   3.670  1.00  0.00    +0.047 A 
ATOM      8  C   UNL     1      15.972 -19.500   3.113  1.00  0.00    +0.009 A 
ATOM      9  C   UNL     1      14.476 -17.733   2.440  1.00  0.00    +0.009 A 
BRANCH   5  10
ATOM     10  O   UNL     1      13.672 -18.931   5.861  1.00  0.00    -0.497 OA
ATOM     11  C   UNL     1      12.479 -18.212   6.144  1.00  0.00    +0.278 C 
ENDBRANCH   5  10
ENDBRANCH   3   4
ENDBRANCH   1   3
BRANCH   1  12
ATOM     12  C   UNL     1      16.544 -20.537  -0.372  1.00  0.00    +0.160 A 
ATOM     13  N   UNL     1      17.661 -20.542   0.397  1.00  0.00    -0.227 NA
ATOM     14  C   UNL     1      16.296 -21.595  -1.256  1.00  0.00    +0.191 A 
ATOM     15  C   UNL     1      18.518 -21.571   0.269  1.00  0.00    +0.092 A 
ATOM     16  N   UNL     1      17.168 -22.640  -1.400  1.00  0.00    -0.236 NA
ATOM     17  C   UNL     1      19.673 -21.599   1.041  1.00  0.00    +0.043 A 
ATOM     18  C   UNL     1      18.269 -22.625  -0.638  1.00  0.00    +0.090 A 
ATOM     19  C   UNL     1      20.605 -22.644   0.941  1.00  0.00    +0.058 A 
ATOM     20  C   UNL     1      19.186 -23.663  -0.733  1.00  0.00    +0.031 A 
ATOM     21  C   UNL     1      20.346 -23.685   0.047  1.00  0.00    +0.015 A 
BRANCH  14  22
ATOM     22  C   UNL     1      15.047 -21.682  -2.079  1.00  0.00    +0.358 C 
ATOM     23  O   UNL     1      13.891 -21.709  -1.700  1.00  0.00    -0.244 OA
BRANCH  22  24
ATOM     24  O   UNL     1      15.313 -21.718  -3.406  1.00  0.00    -0.476 OA
ATOM     25  H   UNL     1      15.791 -22.561  -3.537  1.00  0.00    +0.297 HD
ENDBRANCH  22  24
ENDBRANCH  14  22
BRANCH  19  26
ATOM     26  C   UNL     1      21.838 -22.649   1.812  1.00  0.00    +0.416 C 
ATOM     27  F   UNL     1      22.330 -21.401   2.037  1.00  0.00    -0.166 F 
ATOM     28  F   UNL     1      22.867 -23.364   1.278  1.00  0.00    -0.166 F 
ATOM     29  F   UNL     1      21.600 -23.188   3.038  1.00  0.00    -0.166 F 
ENDBRANCH  19  26
ENDBRANCH   1  12
TORSDOF 7
ENDMDL
