MODEL 1
REMARK VINA RESULT:    -8.873      0.000      0.000
REMARK INTER + INTRA:         -13.166
REMARK INTER:                 -12.245
REMARK INTRA:                  -0.921
REMARK UNBOUND:                -0.921
REMARK SMILES COc1ccc(CNc2nc3cc(C(F)(F)F)ccc3nc2C(=O)O)cc1
REMARK SMILES IDX 8 1 7 3 6 4 3 5 4 6 27 7 5 8 26 9 2 10 1 11 9 12 10 13 22 14
REMARK SMILES IDX 11 15 21 16 12 17 20 18 13 19 19 20 18 21 23 22 24 23 25 24
REMARK SMILES IDX 14 26 15 27 16 28 17 29
REMARK H PARENT 8 2 25 25
ROOT
ATOM      1  N   UNL     1      17.944 -21.007   1.148  1.00  0.00    -0.364 N 
ATOM      2  H   UNL     1      18.854 -20.543   1.097  1.00  0.00    +0.162 HD
ENDROOT
BRANCH   1   3
ATOM      3  C   UNL     1      17.939 -21.943   2.274  1.00  0.00    +0.150 C 
BRANCH   3   4
ATOM      4  C   UNL     1      17.700 -23.351   1.774  1.00  0.00    -0.029 A 
ATOM      5  C   UNL     1      17.199 -25.970   0.866  1.00  0.00    +0.118 A 
ATOM      6  C   UNL     1      17.921 -25.752   2.042  1.00  0.00    +0.047 A 
ATOM      7  C   UNL     1      16.718 -24.875   0.148  1.00  0.00    +0.047 A 
ATOM      8  C   UNL     1      18.167 -24.455   2.497  1.00  0.00    +0.009 A 
ATOM      9  C   UNL     1      16.964 -23.575   0.601  1.00  0.00    +0.009 A 
BRANCH   5  10
ATOM     10  O   UNL     1      17.029 -27.287   0.536  1.00  0.00    -0.497 OA
ATOM     11  C   UNL     1      17.070 -28.227   1.602  1.00  0.00    +0.278 C 
ENDBRANCH   5  10
ENDBRANCH   3   4
ENDBRANCH   1   3
BRANCH   1  12
ATOM     12  C   UNL     1      17.033 -19.959   1.256  1.00  0.00    +0.160 A 
ATOM     13  N   UNL     1      16.411 -19.933   2.461  1.00  0.00    -0.227 NA
ATOM     14  C   UNL     1      16.754 -18.974   0.300  1.00  0.00    +0.191 A 
ATOM     15  C   UNL     1      15.515 -18.956   2.693  1.00  0.00    +0.092 A 
ATOM     16  N   UNL     1      15.837 -17.984   0.525  1.00  0.00    -0.236 NA
ATOM     17  C   UNL     1      14.858 -18.909   3.917  1.00  0.00    +0.043 A 
ATOM     18  C   UNL     1      15.226 -17.978   1.717  1.00  0.00    +0.090 A 
ATOM     19  C   UNL     1      13.908 -17.918   4.210  1.00  0.00    +0.058 A 
ATOM     20  C   UNL     1      14.292 -16.992   2.007  1.00  0.00    +0.031 A 
ATOM     21  C   UNL     1      13.635 -16.950   3.240  1.00  0.00    +0.015 A 
BRANCH  14  22
ATOM     22  C   UNL     1      17.460 -18.908  -1.019  1.00  0.00    +0.358 C 
ATOM     23  O   UNL     1      18.035 -17.961  -1.523  1.00  0.00    -0.244 OA
BRANCH  22  24
ATOM     24  O   UNL     1      17.428 -20.092  -1.674  1.00  0.00    -0.476 OA
ATOM     25  H   UNL     1      18.176 -20.599  -1.298  1.00  0.00    +0.297 HD
ENDBRANCH  22  24
ENDBRANCH  14  22
BRANCH  19  26
ATOM     26  C   UNL     1      13.231 -17.887   5.558  1.00  0.00    +0.416 C 
ATOM     27  F   UNL     1      14.071 -18.212   6.578  1.00  0.00    -0.166 F 
ATOM     28  F   UNL     1      12.182 -18.751   5.649  1.00  0.00    -0.166 F 
ATOM     29  F   UNL     1      12.733 -16.657   5.856  1.00  0.00    -0.166 F 
ENDBRANCH  19  26
ENDBRANCH   1  12
TORSDOF 7
ENDMDL
MODEL 2
REMARK VINA RESULT:    -8.851      2.020      2.525
REMARK INTER + INTRA:         -13.136
REMARK INTER:                 -12.225
REMARK INTRA:                  -0.912
REMARK UNBOUND:                -0.921
REMARK SMILES COc1ccc(CNc2nc3cc(C(F)(F)F)ccc3nc2C(=O)O)cc1
REMARK SMILES IDX 8 1 7 3 6 4 3 5 4 6 27 7 5 8 26 9 2 10 1 11 9 12 10 13 22 14
REMARK SMILES IDX 11 15 21 16 12 17 20 18 13 19 19 20 18 21 23 22 24 23 25 24
REMARK SMILES IDX 14 26 15 27 16 28 17 29
REMARK H PARENT 8 2 25 25
ROOT
ATOM      1  N   UNL     1      17.777 -21.009   0.952  1.00  0.00    -0.364 N 
ATOM      2  H   UNL     1      18.657 -20.679   1.353  1.00  0.00    +0.162 HD
ENDROOT
BRANCH   1   3
ATOM      3  C   UNL     1      17.366 -22.241   1.627  1.00  0.00    +0.150 C 
BRANCH   3   4
ATOM      4  C   UNL     1      18.543 -22.841   2.366  1.00  0.00    -0.029 A 
ATOM      5  C   UNL     1      20.727 -23.914   3.785  1.00  0.00    +0.118 A 
ATOM      6  C   UNL     1      20.935 -23.104   2.665  1.00  0.00    +0.047 A 
ATOM      7  C   UNL     1      19.423 -24.179   4.201  1.00  0.00    +0.047 A 
ATOM      8  C   UNL     1      19.854 -22.567   1.963  1.00  0.00    +0.009 A 
ATOM      9  C   UNL     1      18.338 -23.643   3.499  1.00  0.00    +0.009 A 
BRANCH   5  10
ATOM     10  O   UNL     1      21.871 -24.372   4.379  1.00  0.00    -0.497 OA
ATOM     11  C   UNL     1      22.332 -25.657   3.981  1.00  0.00    +0.278 C 
ENDBRANCH   5  10
ENDBRANCH   3   4
ENDBRANCH   1   3
BRANCH   1  12
ATOM     12  C   UNL     1      16.904 -19.935   1.117  1.00  0.00    +0.160 A 
ATOM     13  N   UNL     1      16.300 -19.937   2.331  1.00  0.00    -0.227 NA
ATOM     14  C   UNL     1      16.646 -18.903   0.207  1.00  0.00    +0.191 A 
ATOM     15  C   UNL     1      15.442 -18.941   2.617  1.00  0.00    +0.092 A 
ATOM     16  N   UNL     1      15.767 -17.892   0.486  1.00  0.00    -0.236 NA
ATOM     17  C   UNL     1      14.804 -18.922   3.851  1.00  0.00    +0.043 A 
ATOM     18  C   UNL     1      15.173 -17.914   1.686  1.00  0.00    +0.090 A 
ATOM     19  C   UNL     1      13.893 -17.913   4.199  1.00  0.00    +0.058 A 
ATOM     20  C   UNL     1      14.278 -16.910   2.030  1.00  0.00    +0.031 A 
ATOM     21  C   UNL     1      13.640 -16.897   3.274  1.00  0.00    +0.015 A 
BRANCH  14  22
ATOM     22  C   UNL     1      17.336 -18.806  -1.120  1.00  0.00    +0.358 C 
ATOM     23  O   UNL     1      18.036 -17.906  -1.545  1.00  0.00    -0.244 OA
BRANCH  22  24
ATOM     24  O   UNL     1      17.122 -19.901  -1.887  1.00  0.00    -0.476 OA
ATOM     25  H   UNL     1      17.798 -20.543  -1.590  1.00  0.00    +0.297 HD
ENDBRANCH  22  24
ENDBRANCH  14  22
BRANCH  19  26
ATOM     26  C   UNL     1      13.236 -17.915   5.558  1.00  0.00    +0.416 C 
ATOM     27  F   UNL     1      14.092 -18.263   6.557  1.00  0.00    -0.166 F 
ATOM     28  F   UNL     1      12.189 -18.782   5.644  1.00  0.00    -0.166 F 
ATOM     29  F   UNL     1      12.742 -16.692   5.892  1.00  0.00    -0.166 F 
ENDBRANCH  19  26
ENDBRANCH   1  12
TORSDOF 7
ENDMDL
MODEL 3
REMARK VINA RESULT:    -8.686      2.812      4.859
REMARK INTER + INTRA:         -12.908
REMARK INTER:                 -12.004
REMARK INTRA:                  -0.904
REMARK UNBOUND:                -0.921
REMARK SMILES COc1ccc(CNc2nc3cc(C(F)(F)F)ccc3nc2C(=O)O)cc1
REMARK SMILES IDX 8 1 7 3 6 4 3 5 4 6 27 7 5 8 26 9 2 10 1 11 9 12 10 13 22 14
REMARK SMILES IDX 11 15 21 16 12 17 20 18 13 19 19 20 18 21 23 22 24 23 25 24
REMARK SMILES IDX 14 26 15 27 16 28 17 29
REMARK H PARENT 8 2 25 25
ROOT
ATOM      1  N   UNL     1      17.516 -22.353   1.967  1.00  0.00    -0.364 N 
ATOM      2  H   UNL     1      17.632 -23.326   2.258  1.00  0.00    +0.162 HD
ENDROOT
BRANCH   1   3
ATOM      3  C   UNL     1      16.520 -22.282   0.895  1.00  0.00    +0.150 C 
BRANCH   3   4
ATOM      4  C   UNL     1      17.196 -21.939  -0.415  1.00  0.00    -0.029 A 
ATOM      5  C   UNL     1      18.506 -21.290  -2.823  1.00  0.00    +0.118 A 
ATOM      6  C   UNL     1      17.663 -20.366  -2.200  1.00  0.00    +0.047 A 
ATOM      7  C   UNL     1      18.702 -22.538  -2.233  1.00  0.00    +0.047 A 
ATOM      8  C   UNL     1      17.015 -20.683  -1.004  1.00  0.00    +0.009 A 
ATOM      9  C   UNL     1      18.054 -22.859  -1.035  1.00  0.00    +0.009 A 
BRANCH   5  10
ATOM     10  O   UNL     1      19.076 -20.850  -3.985  1.00  0.00    -0.497 OA
ATOM     11  C   UNL     1      20.139 -21.631  -4.516  1.00  0.00    +0.278 C 
ENDBRANCH   5  10
ENDBRANCH   3   4
ENDBRANCH   1   3
BRANCH   1  12
ATOM     12  C   UNL     1      17.160 -21.687   3.138  1.00  0.00    +0.160 A 
ATOM     13  N   UNL     1      16.203 -20.749   2.934  1.00  0.00    -0.227 NA
ATOM     14  C   UNL     1      17.652 -21.918   4.429  1.00  0.00    +0.191 A 
ATOM     15  C   UNL     1      15.764 -20.046   3.993  1.00  0.00    +0.092 A 
ATOM     16  N   UNL     1      17.219 -21.200   5.510  1.00  0.00    -0.236 NA
ATOM     17  C   UNL     1      14.788 -19.074   3.812  1.00  0.00    +0.043 A 
ATOM     18  C   UNL     1      16.278 -20.272   5.289  1.00  0.00    +0.090 A 
ATOM     19  C   UNL     1      14.300 -18.305   4.880  1.00  0.00    +0.058 A 
ATOM     20  C   UNL     1      15.793 -19.518   6.349  1.00  0.00    +0.031 A 
ATOM     21  C   UNL     1      14.810 -18.543   6.158  1.00  0.00    +0.015 A 
BRANCH  14  22
ATOM     22  C   UNL     1      18.657 -22.988   4.730  1.00  0.00    +0.358 C 
ATOM     23  O   UNL     1      18.686 -24.136   4.323  1.00  0.00    -0.244 OA
BRANCH  22  24
ATOM     24  O   UNL     1      19.638 -22.550   5.553  1.00  0.00    -0.476 OA
ATOM     25  H   UNL     1      19.268 -22.659   6.453  1.00  0.00    +0.297 HD
ENDBRANCH  22  24
ENDBRANCH  14  22
BRANCH  19  26
ATOM     26  C   UNL     1      13.224 -17.273   4.646  1.00  0.00    +0.416 C 
ATOM     27  F   UNL     1      13.253 -16.264   5.558  1.00  0.00    -0.166 F 
ATOM     28  F   UNL     1      11.965 -17.791   4.704  1.00  0.00    -0.166 F 
ATOM     29  F   UNL     1      13.332 -16.683   3.425  1.00  0.00    -0.166 F 
ENDBRANCH  19  26
ENDBRANCH   1  12
TORSDOF 7
ENDMDL
MODEL 4
REMARK VINA RESULT:    -8.628      4.478      7.560
REMARK INTER + INTRA:         -12.828
REMARK INTER:                 -11.931
REMARK INTRA:                  -0.897
REMARK UNBOUND:                -0.921
REMARK SMILES COc1ccc(CNc2nc3cc(C(F)(F)F)ccc3nc2C(=O)O)cc1
REMARK SMILES IDX 8 1 7 3 6 4 3 5 4 6 27 7 5 8 26 9 2 10 1 11 9 12 10 13 22 14
REMARK SMILES IDX 11 15 21 16 12 17 20 18 13 19 19 20 18 21 23 22 24 23 25 24
REMARK SMILES IDX 14 26 15 27 16 28 17 29
REMARK H PARENT 8 2 25 25
ROOT
ATOM      1  N   UNL     1      17.963 -22.109   5.010  1.00  0.00    -0.364 N 
ATOM      2  H   UNL     1      18.154 -21.105   5.006  1.00  0.00    +0.162 HD
ENDROOT
BRANCH   1   3
ATOM      3  C   UNL     1      16.602 -22.343   5.499  1.00  0.00    +0.150 C 
BRANCH   3   4
ATOM      4  C   UNL     1      15.873 -21.025   5.646  1.00  0.00    -0.029 A 
ATOM      5  C   UNL     1      14.504 -18.586   5.978  1.00  0.00    +0.118 A 
ATOM      6  C   UNL     1      13.881 -19.672   5.357  1.00  0.00    +0.047 A 
ATOM      7  C   UNL     1      15.811 -18.724   6.442  1.00  0.00    +0.047 A 
ATOM      8  C   UNL     1      14.556 -20.884   5.195  1.00  0.00    +0.009 A 
ATOM      9  C   UNL     1      16.490 -19.937   6.280  1.00  0.00    +0.009 A 
BRANCH   5  10
ATOM     10  O   UNL     1      13.730 -17.462   6.072  1.00  0.00    -0.497 OA
ATOM     11  C   UNL     1      12.587 -17.395   5.228  1.00  0.00    +0.278 C 
ENDBRANCH   5  10
ENDBRANCH   3   4
ENDBRANCH   1   3
BRANCH   1  12
ATOM     12  C   UNL     1      18.185 -22.503   3.692  1.00  0.00    +0.160 A 
ATOM     13  N   UNL     1      17.280 -21.974   2.831  1.00  0.00    -0.227 NA
ATOM     14  C   UNL     1      19.218 -23.317   3.211  1.00  0.00    +0.191 A 
ATOM     15  C   UNL     1      17.396 -22.270   1.524  1.00  0.00    +0.092 A 
ATOM     16  N   UNL     1      19.337 -23.631   1.885  1.00  0.00    -0.236 NA
ATOM     17  C   UNL     1      16.479 -21.746   0.621  1.00  0.00    +0.043 A 
ATOM     18  C   UNL     1      18.431 -23.106   1.050  1.00  0.00    +0.090 A 
ATOM     19  C   UNL     1      16.548 -22.030  -0.752  1.00  0.00    +0.058 A 
ATOM     20  C   UNL     1      18.506 -23.382  -0.309  1.00  0.00    +0.031 A 
ATOM     21  C   UNL     1      17.580 -22.851  -1.212  1.00  0.00    +0.015 A 
BRANCH  14  22
ATOM     22  C   UNL     1      20.288 -23.871   4.101  1.00  0.00    +0.358 C 
ATOM     23  O   UNL     1      20.835 -24.957   4.042  1.00  0.00    -0.244 OA
BRANCH  22  24
ATOM     24  O   UNL     1      20.657 -22.993   5.063  1.00  0.00    -0.476 OA
ATOM     25  H   UNL     1      20.183 -23.296   5.864  1.00  0.00    +0.297 HD
ENDBRANCH  22  24
ENDBRANCH  14  22
BRANCH  19  26
ATOM     26  C   UNL     1      15.546 -21.425  -1.705  1.00  0.00    +0.416 C 
ATOM     27  F   UNL     1      15.973 -21.436  -2.997  1.00  0.00    -0.166 F 
ATOM     28  F   UNL     1      15.254 -20.125  -1.420  1.00  0.00    -0.166 F 
ATOM     29  F   UNL     1      14.359 -22.089  -1.694  1.00  0.00    -0.166 F 
ENDBRANCH  19  26
ENDBRANCH   1  12
TORSDOF 7
ENDMDL
MODEL 5
REMARK VINA RESULT:    -8.465      2.575      3.030
REMARK INTER + INTRA:         -12.603
REMARK INTER:                 -11.652
REMARK INTRA:                  -0.952
REMARK UNBOUND:                -0.921
REMARK SMILES COc1ccc(CNc2nc3cc(C(F)(F)F)ccc3nc2C(=O)O)cc1
REMARK SMILES IDX 8 1 7 3 6 4 3 5 4 6 27 7 5 8 26 9 2 10 1 11 9 12 10 13 22 14
REMARK SMILES IDX 11 15 21 16 12 17 20 18 13 19 19 20 18 21 23 22 24 23 25 24
REMARK SMILES IDX 14 26 15 27 16 28 17 29
REMARK H PARENT 8 2 25 25
ROOT
ATOM      1  N   UNL     1      17.633 -21.192   1.080  1.00  0.00    -0.364 N 
ATOM      2  H   UNL     1      17.809 -21.280   0.077  1.00  0.00    +0.162 HD
ENDROOT
BRANCH   1   3
ATOM      3  C   UNL     1      18.910 -21.102   1.791  1.00  0.00    +0.150 C 
BRANCH   3   4
ATOM      4  C   UNL     1      19.955 -21.937   1.084  1.00  0.00    -0.029 A 
ATOM      5  C   UNL     1      21.934 -23.440  -0.243  1.00  0.00    +0.118 A 
ATOM      6  C   UNL     1      20.761 -23.069  -0.904  1.00  0.00    +0.047 A 
ATOM      7  C   UNL     1      22.122 -23.049   1.082  1.00  0.00    +0.047 A 
ATOM      8  C   UNL     1      19.780 -22.320  -0.251  1.00  0.00    +0.009 A 
ATOM      9  C   UNL     1      21.140 -22.300   1.740  1.00  0.00    +0.009 A 
BRANCH   5  10
ATOM     10  O   UNL     1      22.809 -24.171  -0.999  1.00  0.00    -0.497 OA
ATOM     11  C   UNL     1      22.929 -23.811  -2.369  1.00  0.00    +0.278 C 
ENDBRANCH   5  10
ENDBRANCH   3   4
ENDBRANCH   1   3
BRANCH   1  12
ATOM     12  C   UNL     1      16.825 -20.062   1.186  1.00  0.00    +0.160 A 
ATOM     13  N   UNL     1      16.171 -19.999   2.372  1.00  0.00    -0.227 NA
ATOM     14  C   UNL     1      16.673 -19.036   0.246  1.00  0.00    +0.191 A 
ATOM     15  C   UNL     1      15.367 -18.945   2.601  1.00  0.00    +0.092 A 
ATOM     16  N   UNL     1      15.850 -17.965   0.466  1.00  0.00    -0.236 NA
ATOM     17  C   UNL     1      14.680 -18.858   3.805  1.00  0.00    +0.043 A 
ATOM     18  C   UNL     1      15.205 -17.923   1.640  1.00  0.00    +0.090 A 
ATOM     19  C   UNL     1      13.822 -17.785   4.093  1.00  0.00    +0.058 A 
ATOM     20  C   UNL     1      14.363 -16.857   1.924  1.00  0.00    +0.031 A 
ATOM     21  C   UNL     1      13.675 -16.776   3.138  1.00  0.00    +0.015 A 
BRANCH  14  22
ATOM     22  C   UNL     1      17.424 -19.013  -1.051  1.00  0.00    +0.358 C 
ATOM     23  O   UNL     1      18.035 -18.089  -1.555  1.00  0.00    -0.244 OA
BRANCH  22  24
ATOM     24  O   UNL     1      17.389 -20.210  -1.682  1.00  0.00    -0.476 OA
ATOM     25  H   UNL     1      18.258 -20.276  -2.127  1.00  0.00    +0.297 HD
ENDBRANCH  22  24
ENDBRANCH  14  22
BRANCH  19  26
ATOM     26  C   UNL     1      13.109 -17.715   5.421  1.00  0.00    +0.416 C 
ATOM     27  F   UNL     1      13.885 -18.131   6.459  1.00  0.00    -0.166 F 
ATOM     28  F   UNL     1      11.985 -18.483   5.466  1.00  0.00    -0.166 F 
ATOM     29  F   UNL     1      12.714 -16.450   5.728  1.00  0.00    -0.166 F 
ENDBRANCH  19  26
ENDBRANCH   1  12
TORSDOF 7
ENDMDL
MODEL 6
REMARK VINA RESULT:    -7.931      3.855      5.153
REMARK INTER + INTRA:         -11.866
REMARK INTER:                 -10.893
REMARK INTRA:                  -0.973
REMARK UNBOUND:                -0.921
REMARK SMILES COc1ccc(CNc2nc3cc(C(F)(F)F)ccc3nc2C(=O)O)cc1
REMARK SMILES IDX 8 1 7 3 6 4 3 5 4 6 27 7 5 8 26 9 2 10 1 11 9 12 10 13 22 14
REMARK SMILES IDX 11 15 21 16 12 17 20 18 13 19 19 20 18 21 23 22 24 23 25 24
REMARK SMILES IDX 14 26 15 27 16 28 17 29
REMARK H PARENT 8 2 25 25
ROOT
ATOM      1  N   UNL     1      18.391 -22.171  -0.887  1.00  0.00    -0.364 N 
ATOM      2  H   UNL     1      18.328 -21.684  -1.784  1.00  0.00    +0.162 HD
ENDROOT
BRANCH   1   3
ATOM      3  C   UNL     1      19.798 -22.416  -0.565  1.00  0.00    +0.150 C 
BRANCH   3   4
ATOM      4  C   UNL     1      20.635 -22.349  -1.825  1.00  0.00    -0.029 A 
ATOM      5  C   UNL     1      22.217 -22.171  -4.148  1.00  0.00    +0.118 A 
ATOM      6  C   UNL     1      20.874 -21.789  -4.172  1.00  0.00    +0.047 A 
ATOM      7  C   UNL     1      22.772 -22.634  -2.956  1.00  0.00    +0.047 A 
ATOM      8  C   UNL     1      20.088 -21.871  -3.021  1.00  0.00    +0.009 A 
ATOM      9  C   UNL     1      21.987 -22.719  -1.801  1.00  0.00    +0.009 A 
BRANCH   5  10
ATOM     10  O   UNL     1      22.870 -22.039  -5.343  1.00  0.00    -0.497 OA
ATOM     11  C   UNL     1      22.412 -21.013  -6.215  1.00  0.00    +0.278 C 
ENDBRANCH   5  10
ENDBRANCH   3   4
ENDBRANCH   1   3
BRANCH   1  12
ATOM     12  C   UNL     1      17.726 -21.331   0.004  1.00  0.00    +0.160 A 
ATOM     13  N   UNL     1      17.535 -21.906   1.217  1.00  0.00    -0.227 NA
ATOM     14  C   UNL     1      17.302 -20.016  -0.224  1.00  0.00    +0.191 A 
ATOM     15  C   UNL     1      16.914 -21.188   2.171  1.00  0.00    +0.092 A 
ATOM     16  N   UNL     1      16.661 -19.283   0.737  1.00  0.00    -0.236 NA
ATOM     17  C   UNL     1      16.700 -21.754   3.421  1.00  0.00    +0.043 A 
ATOM     18  C   UNL     1      16.473 -19.869   1.927  1.00  0.00    +0.090 A 
ATOM     19  C   UNL     1      16.050 -21.055   4.450  1.00  0.00    +0.058 A 
ATOM     20  C   UNL     1      15.837 -19.172   2.944  1.00  0.00    +0.031 A 
ATOM     21  C   UNL     1      15.625 -19.748   4.201  1.00  0.00    +0.015 A 
BRANCH  14  22
ATOM     22  C   UNL     1      17.548 -19.303  -1.518  1.00  0.00    +0.358 C 
ATOM     23  O   UNL     1      17.990 -18.182  -1.693  1.00  0.00    -0.244 OA
BRANCH  22  24
ATOM     24  O   UNL     1      17.231 -20.066  -2.590  1.00  0.00    -0.476 OA
ATOM     25  H   UNL     1      18.094 -20.335  -2.963  1.00  0.00    +0.297 HD
ENDBRANCH  22  24
ENDBRANCH  14  22
BRANCH  19  26
ATOM     26  C   UNL     1      15.855 -21.696   5.802  1.00  0.00    +0.416 C 
ATOM     27  F   UNL     1      14.553 -21.999   6.059  1.00  0.00    -0.166 F 
ATOM     28  F   UNL     1      16.265 -20.906   6.833  1.00  0.00    -0.166 F 
ATOM     29  F   UNL     1      16.545 -22.862   5.923  1.00  0.00    -0.166 F 
ENDBRANCH  19  26
ENDBRANCH   1  12
TORSDOF 7
ENDMDL
MODEL 7
REMARK VINA RESULT:    -7.780      5.309      8.166
REMARK INTER + INTRA:         -11.658
REMARK INTER:                 -10.819
REMARK INTRA:                  -0.839
REMARK UNBOUND:                -0.921
REMARK SMILES COc1ccc(CNc2nc3cc(C(F)(F)F)ccc3nc2C(=O)O)cc1
REMARK SMILES IDX 8 1 7 3 6 4 3 5 4 6 27 7 5 8 26 9 2 10 1 11 9 12 10 13 22 14
REMARK SMILES IDX 11 15 21 16 12 17 20 18 13 19 19 20 18 21 23 22 24 23 25 24
REMARK SMILES IDX 14 26 15 27 16 28 17 29
REMARK H PARENT 8 2 25 25
ROOT
ATOM      1  N   UNL     1      16.718 -20.551   1.079  1.00  0.00    -0.364 N 
ATOM      2  H   UNL     1      15.846 -20.953   0.726  1.00  0.00    +0.162 HD
ENDROOT
BRANCH   1   3
ATOM      3  C   UNL     1      16.981 -21.070   2.423  1.00  0.00    +0.150 C 
BRANCH   3   4
ATOM      4  C   UNL     1      15.976 -20.501   3.402  1.00  0.00    -0.029 A 
ATOM      5  C   UNL     1      14.060 -19.476   5.195  1.00  0.00    +0.118 A 
ATOM      6  C   UNL     1      14.504 -18.710   4.114  1.00  0.00    +0.047 A 
ATOM      7  C   UNL     1      14.569 -20.762   5.373  1.00  0.00    +0.047 A 
ATOM      8  C   UNL     1      15.450 -19.217   3.220  1.00  0.00    +0.009 A 
ATOM      9  C   UNL     1      15.518 -21.273   4.480  1.00  0.00    +0.009 A 
BRANCH   5  10
ATOM     10  O   UNL     1      13.133 -18.859   5.989  1.00  0.00    -0.497 OA
ATOM     11  C   UNL     1      12.859 -17.492   5.714  1.00  0.00    +0.278 C 
ENDBRANCH   5  10
ENDBRANCH   3   4
ENDBRANCH   1   3
BRANCH   1  12
ATOM     12  C   UNL     1      17.667 -20.903   0.122  1.00  0.00    +0.160 A 
ATOM     13  N   UNL     1      18.172 -22.146   0.323  1.00  0.00    -0.227 NA
ATOM     14  C   UNL     1      18.087 -20.144  -0.977  1.00  0.00    +0.191 A 
ATOM     15  C   UNL     1      19.091 -22.607  -0.545  1.00  0.00    +0.092 A 
ATOM     16  N   UNL     1      19.028 -20.602  -1.858  1.00  0.00    -0.236 NA
ATOM     17  C   UNL     1      19.630 -23.874  -0.361  1.00  0.00    +0.043 A 
ATOM     18  C   UNL     1      19.522 -21.827  -1.641  1.00  0.00    +0.090 A 
ATOM     19  C   UNL     1      20.597 -24.402  -1.231  1.00  0.00    +0.058 A 
ATOM     20  C   UNL     1      20.473 -22.349  -2.507  1.00  0.00    +0.031 A 
ATOM     21  C   UNL     1      21.011 -23.625  -2.316  1.00  0.00    +0.015 A 
BRANCH  14  22
ATOM     22  C   UNL     1      17.514 -18.796  -1.291  1.00  0.00    +0.358 C 
ATOM     23  O   UNL     1      18.103 -17.774  -1.594  1.00  0.00    -0.244 OA
BRANCH  22  24
ATOM     24  O   UNL     1      16.162 -18.789  -1.226  1.00  0.00    -0.476 OA
ATOM     25  H   UNL     1      15.955 -18.149  -0.514  1.00  0.00    +0.297 HD
ENDBRANCH  22  24
ENDBRANCH  14  22
BRANCH  19  26
ATOM     26  C   UNL     1      21.143 -25.791  -1.009  1.00  0.00    +0.416 C 
ATOM     27  F   UNL     1      20.189 -26.676  -0.612  1.00  0.00    -0.166 F 
ATOM     28  F   UNL     1      22.115 -25.838  -0.056  1.00  0.00    -0.166 F 
ATOM     29  F   UNL     1      21.696 -26.313  -2.137  1.00  0.00    -0.166 F 
ENDBRANCH  19  26
ENDBRANCH   1  12
TORSDOF 7
ENDMDL
MODEL 8
REMARK VINA RESULT:    -7.776      2.451      3.384
REMARK INTER + INTRA:         -11.652
REMARK INTER:                 -10.536
REMARK INTRA:                  -1.116
REMARK UNBOUND:                -0.921
REMARK SMILES COc1ccc(CNc2nc3cc(C(F)(F)F)ccc3nc2C(=O)O)cc1
REMARK SMILES IDX 8 1 7 3 6 4 3 5 4 6 27 7 5 8 26 9 2 10 1 11 9 12 10 13 22 14
REMARK SMILES IDX 11 15 21 16 12 17 20 18 13 19 19 20 18 21 23 22 24 23 25 24
REMARK SMILES IDX 14 26 15 27 16 28 17 29
REMARK H PARENT 8 2 25 25
ROOT
ATOM      1  N   UNL     1      17.987 -21.165   1.175  1.00  0.00    -0.364 N 
ATOM      2  H   UNL     1      18.862 -21.640   1.407  1.00  0.00    +0.162 HD
ENDROOT
BRANCH   1   3
ATOM      3  C   UNL     1      17.224 -21.985   0.231  1.00  0.00    +0.150 C 
BRANCH   3   4
ATOM      4  C   UNL     1      17.684 -23.425   0.309  1.00  0.00    -0.029 A 
ATOM      5  C   UNL     1      18.539 -26.108   0.394  1.00  0.00    +0.118 A 
ATOM      6  C   UNL     1      17.199 -25.781   0.618  1.00  0.00    +0.047 A 
ATOM      7  C   UNL     1      19.451 -25.090   0.117  1.00  0.00    +0.047 A 
ATOM      8  C   UNL     1      16.771 -24.452   0.572  1.00  0.00    +0.009 A 
ATOM      9  C   UNL     1      19.025 -23.758   0.071  1.00  0.00    +0.009 A 
BRANCH   5  10
ATOM     10  O   UNL     1      18.820 -27.444   0.467  1.00  0.00    -0.497 OA
ATOM     11  C   UNL     1      19.554 -28.006  -0.613  1.00  0.00    +0.278 C 
ENDBRANCH   5  10
ENDBRANCH   3   4
ENDBRANCH   1   3
BRANCH   1  12
ATOM     12  C   UNL     1      17.369 -20.970   2.409  1.00  0.00    +0.160 A 
ATOM     13  N   UNL     1      16.428 -19.994   2.371  1.00  0.00    -0.227 NA
ATOM     14  C   UNL     1      17.599 -21.678   3.595  1.00  0.00    +0.191 A 
ATOM     15  C   UNL     1      15.750 -19.720   3.500  1.00  0.00    +0.092 A 
ATOM     16  N   UNL     1      16.921 -21.398   4.750  1.00  0.00    -0.236 NA
ATOM     17  C   UNL     1      14.785 -18.720   3.492  1.00  0.00    +0.043 A 
ATOM     18  C   UNL     1      16.001 -20.425   4.697  1.00  0.00    +0.090 A 
ATOM     19  C   UNL     1      14.054 -18.387   4.643  1.00  0.00    +0.058 A 
ATOM     20  C   UNL     1      15.275 -20.103   5.835  1.00  0.00    +0.031 A 
ATOM     21  C   UNL     1      14.305 -19.096   5.819  1.00  0.00    +0.015 A 
BRANCH  14  22
ATOM     22  C   UNL     1      18.572 -22.813   3.681  1.00  0.00    +0.358 C 
ATOM     23  O   UNL     1      19.731 -22.848   3.307  1.00  0.00    -0.244 OA
BRANCH  22  24
ATOM     24  O   UNL     1      18.032 -23.904   4.274  1.00  0.00    -0.476 OA
ATOM     25  H   UNL     1      17.953 -23.655   5.217  1.00  0.00    +0.297 HD
ENDBRANCH  22  24
ENDBRANCH  14  22
BRANCH  19  26
ATOM     26  C   UNL     1      12.999 -17.309   4.589  1.00  0.00    +0.416 C 
ATOM     27  F   UNL     1      11.751 -17.779   4.858  1.00  0.00    -0.166 F 
ATOM     28  F   UNL     1      12.914 -16.705   3.371  1.00  0.00    -0.166 F 
ATOM     29  F   UNL     1      13.231 -16.315   5.488  1.00  0.00    -0.166 F 
ENDBRANCH  19  26
ENDBRANCH   1  12
TORSDOF 7
ENDMDL
MODEL 9
REMARK VINA RESULT:    -7.771      2.085      2.798
REMARK INTER + INTRA:         -11.646
REMARK INTER:                 -10.496
REMARK INTRA:                  -1.149
REMARK UNBOUND:                -0.921
REMARK SMILES COc1ccc(CNc2nc3cc(C(F)(F)F)ccc3nc2C(=O)O)cc1
REMARK SMILES IDX 8 1 7 3 6 4 3 5 4 6 27 7 5 8 26 9 2 10 1 11 9 12 10 13 22 14
REMARK SMILES IDX 11 15 21 16 12 17 20 18 13 19 19 20 18 21 23 22 24 23 25 24
REMARK SMILES IDX 14 26 15 27 16 28 17 29
REMARK H PARENT 8 2 25 25
ROOT
ATOM      1  N   UNL     1      18.145 -22.231   4.480  1.00  0.00    -0.364 N 
ATOM      2  H   UNL     1      18.119 -21.927   5.456  1.00  0.00    +0.162 HD
ENDROOT
BRANCH   1   3
ATOM      3  C   UNL     1      17.625 -23.596   4.383  1.00  0.00    +0.150 C 
BRANCH   3   4
ATOM      4  C   UNL     1      18.497 -24.416   3.456  1.00  0.00    -0.029 A 
ATOM      5  C   UNL     1      20.136 -25.891   1.703  1.00  0.00    +0.118 A 
ATOM      6  C   UNL     1      18.753 -25.839   1.509  1.00  0.00    +0.047 A 
ATOM      7  C   UNL     1      20.700 -25.195   2.771  1.00  0.00    +0.047 A 
ATOM      8  C   UNL     1      17.938 -25.105   2.374  1.00  0.00    +0.009 A 
ATOM      9  C   UNL     1      19.886 -24.460   3.640  1.00  0.00    +0.009 A 
BRANCH   5  10
ATOM     10  O   UNL     1      20.813 -26.643   0.784  1.00  0.00    -0.497 OA
ATOM     11  C   UNL     1      20.468 -26.454  -0.583  1.00  0.00    +0.278 C 
ENDBRANCH   5  10
ENDBRANCH   3   4
ENDBRANCH   1   3
BRANCH   1  12
ATOM     12  C   UNL     1      17.396 -21.271   3.804  1.00  0.00    +0.160 A 
ATOM     13  N   UNL     1      16.483 -20.665   4.603  1.00  0.00    -0.227 NA
ATOM     14  C   UNL     1      17.524 -20.882   2.465  1.00  0.00    +0.191 A 
ATOM     15  C   UNL     1      15.704 -19.708   4.068  1.00  0.00    +0.092 A 
ATOM     16  N   UNL     1      16.729 -19.916   1.911  1.00  0.00    -0.236 NA
ATOM     17  C   UNL     1      14.757 -19.074   4.863  1.00  0.00    +0.043 A 
ATOM     18  C   UNL     1      15.828 -19.333   2.712  1.00  0.00    +0.090 A 
ATOM     19  C   UNL     1      13.912 -18.075   4.355  1.00  0.00    +0.058 A 
ATOM     20  C   UNL     1      14.999 -18.340   2.208  1.00  0.00    +0.031 A 
ATOM     21  C   UNL     1      14.048 -17.707   3.014  1.00  0.00    +0.015 A 
BRANCH  14  22
ATOM     22  C   UNL     1      18.561 -21.462   1.552  1.00  0.00    +0.358 C 
ATOM     23  O   UNL     1      18.398 -22.045   0.496  1.00  0.00    -0.244 OA
BRANCH  22  24
ATOM     24  O   UNL     1      19.817 -21.265   2.016  1.00  0.00    -0.476 OA
ATOM     25  H   UNL     1      19.721 -20.556   2.685  1.00  0.00    +0.297 HD
ENDBRANCH  22  24
ENDBRANCH  14  22
BRANCH  19  26
ATOM     26  C   UNL     1      12.909 -17.395   5.255  1.00  0.00    +0.416 C 
ATOM     27  F   UNL     1      12.789 -18.005   6.465  1.00  0.00    -0.166 F 
ATOM     28  F   UNL     1      11.654 -17.362   4.728  1.00  0.00    -0.166 F 
ATOM     29  F   UNL     1      13.244 -16.103   5.515  1.00  0.00    -0.166 F 
ENDBRANCH  19  26
ENDBRANCH   1  12
TORSDOF 7
ENDMDL
