MODEL 1
REMARK VINA RESULT:    -8.905      0.000      0.000
REMARK INTER + INTRA:         -13.205
REMARK INTER:                 -12.289
REMARK INTRA:                  -0.916
REMARK UNBOUND:                -0.916
REMARK SMILES COc1ccc(CNc2nc3cc(C(F)(F)F)ccc3nc2C(=O)O)cc1
REMARK SMILES IDX 8 1 7 3 6 4 3 5 4 6 27 7 5 8 26 9 2 10 1 11 9 12 10 13 22 14
REMARK SMILES IDX 11 15 21 16 12 17 20 18 13 19 19 20 18 21 23 22 24 23 25 24
REMARK SMILES IDX 14 26 15 27 16 28 17 29
REMARK H PARENT 8 2 25 25
ROOT
ATOM      1  N   UNL     1      17.910 -20.916   0.921  1.00  0.00    -0.364 N 
ATOM      2  H   UNL     1      18.808 -20.452   0.764  1.00  0.00    +0.162 HD
ENDROOT
BRANCH   1   3
ATOM      3  C   UNL     1      18.021 -21.811   2.075  1.00  0.00    +0.150 C 
BRANCH   3   4
ATOM      4  C   UNL     1      17.782 -23.242   1.642  1.00  0.00    -0.029 A 
ATOM      5  C   UNL     1      17.285 -25.904   0.868  1.00  0.00    +0.118 A 
ATOM      6  C   UNL     1      18.148 -25.622   1.929  1.00  0.00    +0.047 A 
ATOM      7  C   UNL     1      16.661 -24.852   0.199  1.00  0.00    +0.047 A 
ATOM      8  C   UNL     1      18.393 -24.303   2.319  1.00  0.00    +0.009 A 
ATOM      9  C   UNL     1      16.906 -23.530   0.586  1.00  0.00    +0.009 A 
BRANCH   5  10
ATOM     10  O   UNL     1      17.134 -27.235   0.593  1.00  0.00    -0.497 OA
ATOM     11  C   UNL     1      16.960 -28.106   1.704  1.00  0.00    +0.278 C 
ENDBRANCH   5  10
ENDBRANCH   3   4
ENDBRANCH   1   3
BRANCH   1  12
ATOM     12  C   UNL     1      17.009 -19.866   1.082  1.00  0.00    +0.160 A 
ATOM     13  N   UNL     1      16.397 -19.886   2.292  1.00  0.00    -0.227 NA
ATOM     14  C   UNL     1      16.728 -18.840   0.170  1.00  0.00    +0.191 A 
ATOM     15  C   UNL     1      15.511 -18.913   2.573  1.00  0.00    +0.092 A 
ATOM     16  N   UNL     1      15.821 -17.854   0.445  1.00  0.00    -0.236 NA
ATOM     17  C   UNL     1      14.866 -18.912   3.804  1.00  0.00    +0.043 A 
ATOM     18  C   UNL     1      15.221 -17.893   1.642  1.00  0.00    +0.090 A 
ATOM     19  C   UNL     1      13.926 -17.927   4.146  1.00  0.00    +0.058 A 
ATOM     20  C   UNL     1      14.297 -16.913   1.981  1.00  0.00    +0.031 A 
ATOM     21  C   UNL     1      13.652 -16.918   3.221  1.00  0.00    +0.015 A 
BRANCH  14  22
ATOM     22  C   UNL     1      17.423 -18.724  -1.152  1.00  0.00    +0.358 C 
ATOM     23  O   UNL     1      18.129 -17.820  -1.559  1.00  0.00    -0.244 OA
BRANCH  22  24
ATOM     24  O   UNL     1      17.207 -19.805  -1.938  1.00  0.00    -0.476 OA
ATOM     25  H   UNL     1      16.562 -19.496  -2.605  1.00  0.00    +0.297 HD
ENDBRANCH  22  24
ENDBRANCH  14  22
BRANCH  19  26
ATOM     26  C   UNL     1      13.262 -17.948   5.501  1.00  0.00    +0.416 C 
ATOM     27  F   UNL     1      12.236 -18.840   5.573  1.00  0.00    -0.166 F 
ATOM     28  F   UNL     1      12.733 -16.743   5.856  1.00  0.00    -0.166 F 
ATOM     29  F   UNL     1      14.127 -18.287   6.494  1.00  0.00    -0.166 F 
ENDBRANCH  19  26
ENDBRANCH   1  12
TORSDOF 7
ENDMDL
MODEL 2
REMARK VINA RESULT:    -8.898      2.022      2.509
REMARK INTER + INTRA:         -13.195
REMARK INTER:                 -12.289
REMARK INTRA:                  -0.906
REMARK UNBOUND:                -0.916
REMARK SMILES COc1ccc(CNc2nc3cc(C(F)(F)F)ccc3nc2C(=O)O)cc1
REMARK SMILES IDX 8 1 7 3 6 4 3 5 4 6 27 7 5 8 26 9 2 10 1 11 9 12 10 13 22 14
REMARK SMILES IDX 11 15 21 16 12 17 20 18 13 19 19 20 18 21 23 22 24 23 25 24
REMARK SMILES IDX 14 26 15 27 16 28 17 29
REMARK H PARENT 8 2 25 25
ROOT
ATOM      1  N   UNL     1      17.807 -20.998   0.940  1.00  0.00    -0.364 N 
ATOM      2  H   UNL     1      18.681 -20.668   1.355  1.00  0.00    +0.162 HD
ENDROOT
BRANCH   1   3
ATOM      3  C   UNL     1      17.399 -22.243   1.593  1.00  0.00    +0.150 C 
BRANCH   3   4
ATOM      4  C   UNL     1      18.561 -22.824   2.369  1.00  0.00    -0.029 A 
ATOM      5  C   UNL     1      20.724 -23.856   3.850  1.00  0.00    +0.118 A 
ATOM      6  C   UNL     1      20.941 -23.210   2.630  1.00  0.00    +0.047 A 
ATOM      7  C   UNL     1      19.422 -23.976   4.335  1.00  0.00    +0.047 A 
ATOM      8  C   UNL     1      19.872 -22.694   1.896  1.00  0.00    +0.009 A 
ATOM      9  C   UNL     1      18.348 -23.460   3.600  1.00  0.00    +0.009 A 
BRANCH   5  10
ATOM     10  O   UNL     1      21.857 -24.312   4.465  1.00  0.00    -0.497 OA
ATOM     11  C   UNL     1      22.386 -25.548   4.001  1.00  0.00    +0.278 C 
ENDBRANCH   5  10
ENDBRANCH   3   4
ENDBRANCH   1   3
BRANCH   1  12
ATOM     12  C   UNL     1      16.925 -19.933   1.111  1.00  0.00    +0.160 A 
ATOM     13  N   UNL     1      16.326 -19.944   2.328  1.00  0.00    -0.227 NA
ATOM     14  C   UNL     1      16.652 -18.902   0.204  1.00  0.00    +0.191 A 
ATOM     15  C   UNL     1      15.460 -18.957   2.619  1.00  0.00    +0.092 A 
ATOM     16  N   UNL     1      15.765 -17.900   0.489  1.00  0.00    -0.236 NA
ATOM     17  C   UNL     1      14.828 -18.946   3.857  1.00  0.00    +0.043 A 
ATOM     18  C   UNL     1      15.177 -17.930   1.692  1.00  0.00    +0.090 A 
ATOM     19  C   UNL     1      13.908 -17.946   4.210  1.00  0.00    +0.058 A 
ATOM     20  C   UNL     1      14.274 -16.935   2.042  1.00  0.00    +0.031 A 
ATOM     21  C   UNL     1      13.642 -16.931   3.289  1.00  0.00    +0.015 A 
BRANCH  14  22
ATOM     22  C   UNL     1      17.335 -18.795  -1.125  1.00  0.00    +0.358 C 
ATOM     23  O   UNL     1      18.065 -17.910  -1.533  1.00  0.00    -0.244 OA
BRANCH  22  24
ATOM     24  O   UNL     1      17.076 -19.861  -1.918  1.00  0.00    -0.476 OA
ATOM     25  H   UNL     1      17.951 -20.125  -2.268  1.00  0.00    +0.297 HD
ENDBRANCH  22  24
ENDBRANCH  14  22
BRANCH  19  26
ATOM     26  C   UNL     1      13.258 -17.957   5.572  1.00  0.00    +0.416 C 
ATOM     27  F   UNL     1      12.235 -18.851   5.661  1.00  0.00    -0.166 F 
ATOM     28  F   UNL     1      12.731 -16.751   5.923  1.00  0.00    -0.166 F 
ATOM     29  F   UNL     1      14.134 -18.287   6.559  1.00  0.00    -0.166 F 
ENDBRANCH  19  26
ENDBRANCH   1  12
TORSDOF 7
ENDMDL
MODEL 3
REMARK VINA RESULT:    -8.680      2.846      4.942
REMARK INTER + INTRA:         -12.894
REMARK INTER:                 -11.995
REMARK INTRA:                  -0.899
REMARK UNBOUND:                -0.916
REMARK SMILES COc1ccc(CNc2nc3cc(C(F)(F)F)ccc3nc2C(=O)O)cc1
REMARK SMILES IDX 8 1 7 3 6 4 3 5 4 6 27 7 5 8 26 9 2 10 1 11 9 12 10 13 22 14
REMARK SMILES IDX 11 15 21 16 12 17 20 18 13 19 19 20 18 21 23 22 24 23 25 24
REMARK SMILES IDX 14 26 15 27 16 28 17 29
REMARK H PARENT 8 2 25 25
ROOT
ATOM      1  N   UNL     1      17.617 -22.422   1.943  1.00  0.00    -0.364 N 
ATOM      2  H   UNL     1      17.767 -23.394   2.222  1.00  0.00    +0.162 HD
ENDROOT
BRANCH   1   3
ATOM      3  C   UNL     1      16.609 -22.371   0.882  1.00  0.00    +0.150 C 
BRANCH   3   4
ATOM      4  C   UNL     1      17.262 -21.999  -0.433  1.00  0.00    -0.029 A 
ATOM      5  C   UNL     1      18.529 -21.294  -2.848  1.00  0.00    +0.118 A 
ATOM      6  C   UNL     1      17.693 -20.387  -2.192  1.00  0.00    +0.047 A 
ATOM      7  C   UNL     1      18.739 -22.554  -2.288  1.00  0.00    +0.047 A 
ATOM      8  C   UNL     1      17.067 -20.731  -0.992  1.00  0.00    +0.009 A 
ATOM      9  C   UNL     1      18.112 -22.902  -1.086  1.00  0.00    +0.009 A 
BRANCH   5  10
ATOM     10  O   UNL     1      19.077 -20.828  -4.011  1.00  0.00    -0.497 OA
ATOM     11  C   UNL     1      20.122 -21.603  -4.584  1.00  0.00    +0.278 C 
ENDBRANCH   5  10
ENDBRANCH   3   4
ENDBRANCH   1   3
BRANCH   1  12
ATOM     12  C   UNL     1      17.252 -21.782   3.125  1.00  0.00    +0.160 A 
ATOM     13  N   UNL     1      16.279 -20.856   2.936  1.00  0.00    -0.227 NA
ATOM     14  C   UNL     1      17.750 -22.025   4.411  1.00  0.00    +0.191 A 
ATOM     15  C   UNL     1      15.830 -20.177   4.007  1.00  0.00    +0.092 A 
ATOM     16  N   UNL     1      17.306 -21.331   5.504  1.00  0.00    -0.236 NA
ATOM     17  C   UNL     1      14.837 -19.220   3.842  1.00  0.00    +0.043 A 
ATOM     18  C   UNL     1      16.350 -20.416   5.298  1.00  0.00    +0.090 A 
ATOM     19  C   UNL     1      14.338 -18.476   4.923  1.00  0.00    +0.058 A 
ATOM     20  C   UNL     1      15.853 -19.687   6.371  1.00  0.00    +0.031 A 
ATOM     21  C   UNL     1      14.854 -18.725   6.197  1.00  0.00    +0.015 A 
BRANCH  14  22
ATOM     22  C   UNL     1      18.773 -23.082   4.693  1.00  0.00    +0.358 C 
ATOM     23  O   UNL     1      18.810 -24.228   4.284  1.00  0.00    -0.244 OA
BRANCH  22  24
ATOM     24  O   UNL     1      19.761 -22.633   5.502  1.00  0.00    -0.476 OA
ATOM     25  H   UNL     1      19.350 -21.901   6.006  1.00  0.00    +0.297 HD
ENDBRANCH  22  24
ENDBRANCH  14  22
BRANCH  19  26
ATOM     26  C   UNL     1      13.244 -17.459   4.707  1.00  0.00    +0.416 C 
ATOM     27  F   UNL     1      12.010 -17.937   5.024  1.00  0.00    -0.166 F 
ATOM     28  F   UNL     1      13.158 -17.033   3.416  1.00  0.00    -0.166 F 
ATOM     29  F   UNL     1      13.423 -16.342   5.462  1.00  0.00    -0.166 F 
ENDBRANCH  19  26
ENDBRANCH   1  12
TORSDOF 7
ENDMDL
MODEL 4
REMARK VINA RESULT:    -8.615      4.492      7.524
REMARK INTER + INTRA:         -12.805
REMARK INTER:                 -11.917
REMARK INTRA:                  -0.888
REMARK UNBOUND:                -0.916
REMARK SMILES COc1ccc(CNc2nc3cc(C(F)(F)F)ccc3nc2C(=O)O)cc1
REMARK SMILES IDX 8 1 7 3 6 4 3 5 4 6 27 7 5 8 26 9 2 10 1 11 9 12 10 13 22 14
REMARK SMILES IDX 11 15 21 16 12 17 20 18 13 19 19 20 18 21 23 22 24 23 25 24
REMARK SMILES IDX 14 26 15 27 16 28 17 29
REMARK H PARENT 8 2 25 25
ROOT
ATOM      1  N   UNL     1      17.973 -22.167   5.004  1.00  0.00    -0.364 N 
ATOM      2  H   UNL     1      18.163 -21.163   5.010  1.00  0.00    +0.162 HD
ENDROOT
BRANCH   1   3
ATOM      3  C   UNL     1      16.618 -22.408   5.504  1.00  0.00    +0.150 C 
BRANCH   3   4
ATOM      4  C   UNL     1      15.887 -21.093   5.670  1.00  0.00    -0.029 A 
ATOM      5  C   UNL     1      14.539 -18.632   5.919  1.00  0.00    +0.118 A 
ATOM      6  C   UNL     1      15.855 -18.770   6.367  1.00  0.00    +0.047 A 
ATOM      7  C   UNL     1      13.900 -19.725   5.335  1.00  0.00    +0.047 A 
ATOM      8  C   UNL     1      16.528 -19.988   6.241  1.00  0.00    +0.009 A 
ATOM      9  C   UNL     1      14.571 -20.946   5.209  1.00  0.00    +0.009 A 
BRANCH   5  10
ATOM     10  O   UNL     1      14.002 -17.388   6.102  1.00  0.00    -0.497 OA
ATOM     11  C   UNL     1      12.771 -17.116   5.444  1.00  0.00    +0.278 C 
ENDBRANCH   5  10
ENDBRANCH   3   4
ENDBRANCH   1   3
BRANCH   1  12
ATOM     12  C   UNL     1      18.180 -22.545   3.679  1.00  0.00    +0.160 A 
ATOM     13  N   UNL     1      17.264 -22.009   2.835  1.00  0.00    -0.227 NA
ATOM     14  C   UNL     1      19.211 -23.349   3.176  1.00  0.00    +0.191 A 
ATOM     15  C   UNL     1      17.366 -22.289   1.523  1.00  0.00    +0.092 A 
ATOM     16  N   UNL     1      19.316 -23.646   1.845  1.00  0.00    -0.236 NA
ATOM     17  C   UNL     1      16.437 -21.757   0.637  1.00  0.00    +0.043 A 
ATOM     18  C   UNL     1      18.398 -23.115   1.027  1.00  0.00    +0.090 A 
ATOM     19  C   UNL     1      16.490 -22.024  -0.740  1.00  0.00    +0.058 A 
ATOM     20  C   UNL     1      18.458 -23.374  -0.336  1.00  0.00    +0.031 A 
ATOM     21  C   UNL     1      17.519 -22.836  -1.221  1.00  0.00    +0.015 A 
BRANCH  14  22
ATOM     22  C   UNL     1      20.293 -23.910   4.047  1.00  0.00    +0.358 C 
ATOM     23  O   UNL     1      20.852 -24.988   3.960  1.00  0.00    -0.244 OA
BRANCH  22  24
ATOM     24  O   UNL     1      20.657 -23.050   5.026  1.00  0.00    -0.476 OA
ATOM     25  H   UNL     1      21.635 -23.040   4.993  1.00  0.00    +0.297 HD
ENDBRANCH  22  24
ENDBRANCH  14  22
BRANCH  19  26
ATOM     26  C   UNL     1      15.475 -21.411  -1.674  1.00  0.00    +0.416 C 
ATOM     27  F   UNL     1      14.276 -22.054  -1.645  1.00  0.00    -0.166 F 
ATOM     28  F   UNL     1      15.873 -21.421  -2.977  1.00  0.00    -0.166 F 
ATOM     29  F   UNL     1      15.214 -20.111  -1.369  1.00  0.00    -0.166 F 
ENDBRANCH  19  26
ENDBRANCH   1  12
TORSDOF 7
ENDMDL
MODEL 5
REMARK VINA RESULT:    -8.253      1.646      2.091
REMARK INTER + INTRA:         -12.305
REMARK INTER:                 -11.450
REMARK INTRA:                  -0.855
REMARK UNBOUND:                -0.916
REMARK SMILES COc1ccc(CNc2nc3cc(C(F)(F)F)ccc3nc2C(=O)O)cc1
REMARK SMILES IDX 8 1 7 3 6 4 3 5 4 6 27 7 5 8 26 9 2 10 1 11 9 12 10 13 22 14
REMARK SMILES IDX 11 15 21 16 12 17 20 18 13 19 19 20 18 21 23 22 24 23 25 24
REMARK SMILES IDX 14 26 15 27 16 28 17 29
REMARK H PARENT 8 2 25 25
ROOT
ATOM      1  N   UNL     1      18.243 -20.984   0.656  1.00  0.00    -0.364 N 
ATOM      2  H   UNL     1      18.745 -20.620  -0.157  1.00  0.00    +0.162 HD
ENDROOT
BRANCH   1   3
ATOM      3  C   UNL     1      19.191 -21.217   1.748  1.00  0.00    +0.150 C 
BRANCH   3   4
ATOM      4  C   UNL     1      19.725 -22.631   1.674  1.00  0.00    -0.029 A 
ATOM      5  C   UNL     1      20.728 -25.262   1.597  1.00  0.00    +0.118 A 
ATOM      6  C   UNL     1      21.540 -24.181   1.245  1.00  0.00    +0.047 A 
ATOM      7  C   UNL     1      19.414 -25.025   1.998  1.00  0.00    +0.047 A 
ATOM      8  C   UNL     1      21.047 -22.875   1.286  1.00  0.00    +0.009 A 
ATOM      9  C   UNL     1      18.917 -23.718   2.040  1.00  0.00    +0.009 A 
BRANCH   5  10
ATOM     10  O   UNL     1      21.336 -26.484   1.513  1.00  0.00    -0.497 OA
ATOM     11  C   UNL     1      20.677 -27.479   0.740  1.00  0.00    +0.278 C 
ENDBRANCH   5  10
ENDBRANCH   3   4
ENDBRANCH   1   3
BRANCH   1  12
ATOM     12  C   UNL     1      17.276 -20.016   0.920  1.00  0.00    +0.160 A 
ATOM     13  N   UNL     1      16.726 -20.152   2.152  1.00  0.00    -0.227 NA
ATOM     14  C   UNL     1      16.879 -18.963   0.086  1.00  0.00    +0.191 A 
ATOM     15  C   UNL     1      15.787 -19.267   2.531  1.00  0.00    +0.092 A 
ATOM     16  N   UNL     1      15.917 -18.064   0.460  1.00  0.00    -0.236 NA
ATOM     17  C   UNL     1      15.203 -19.385   3.786  1.00  0.00    +0.043 A 
ATOM     18  C   UNL     1      15.379 -18.218   1.677  1.00  0.00    +0.090 A 
ATOM     19  C   UNL     1      14.212 -18.496   4.229  1.00  0.00    +0.058 A 
ATOM     20  C   UNL     1      14.405 -17.332   2.115  1.00  0.00    +0.031 A 
ATOM     21  C   UNL     1      13.821 -17.457   3.380  1.00  0.00    +0.015 A 
BRANCH  14  22
ATOM     22  C   UNL     1      17.500 -18.718  -1.255  1.00  0.00    +0.358 C 
ATOM     23  O   UNL     1      18.125 -17.744  -1.634  1.00  0.00    -0.244 OA
BRANCH  22  24
ATOM     24  O   UNL     1      17.318 -19.760  -2.099  1.00  0.00    -0.476 OA
ATOM     25  H   UNL     1      17.138 -19.344  -2.966  1.00  0.00    +0.297 HD
ENDBRANCH  22  24
ENDBRANCH  14  22
BRANCH  19  26
ATOM     26  C   UNL     1      13.616 -18.645   5.607  1.00  0.00    +0.416 C 
ATOM     27  F   UNL     1      14.303 -17.954   6.557  1.00  0.00    -0.166 F 
ATOM     28  F   UNL     1      13.582 -19.937   6.038  1.00  0.00    -0.166 F 
ATOM     29  F   UNL     1      12.334 -18.194   5.665  1.00  0.00    -0.166 F 
ENDBRANCH  19  26
ENDBRANCH   1  12
TORSDOF 7
ENDMDL
MODEL 6
REMARK VINA RESULT:    -8.156      3.898      7.274
REMARK INTER + INTRA:         -12.171
REMARK INTER:                 -11.250
REMARK INTRA:                  -0.921
REMARK UNBOUND:                -0.916
REMARK SMILES COc1ccc(CNc2nc3cc(C(F)(F)F)ccc3nc2C(=O)O)cc1
REMARK SMILES IDX 8 1 7 3 6 4 3 5 4 6 27 7 5 8 26 9 2 10 1 11 9 12 10 13 22 14
REMARK SMILES IDX 11 15 21 16 12 17 20 18 13 19 19 20 18 21 23 22 24 23 25 24
REMARK SMILES IDX 14 26 15 27 16 28 17 29
REMARK H PARENT 8 2 25 25
ROOT
ATOM      1  N   UNL     1      16.967 -18.550   1.006  1.00  0.00    -0.364 N 
ATOM      2  H   UNL     1      17.277 -17.850   0.329  1.00  0.00    +0.162 HD
ENDROOT
BRANCH   1   3
ATOM      3  C   UNL     1      15.521 -18.742   0.879  1.00  0.00    +0.150 C 
BRANCH   3   4
ATOM      4  C   UNL     1      14.831 -18.337   2.164  1.00  0.00    -0.029 A 
ATOM      5  C   UNL     1      13.593 -17.542   4.566  1.00  0.00    +0.118 A 
ATOM      6  C   UNL     1      14.372 -18.701   4.517  1.00  0.00    +0.047 A 
ATOM      7  C   UNL     1      13.443 -16.774   3.412  1.00  0.00    +0.047 A 
ATOM      8  C   UNL     1      14.991 -19.096   3.329  1.00  0.00    +0.009 A 
ATOM      9  C   UNL     1      14.061 -17.167   2.220  1.00  0.00    +0.009 A 
BRANCH   5  10
ATOM     10  O   UNL     1      13.047 -17.272   5.790  1.00  0.00    -0.497 OA
ATOM     11  C   UNL     1      12.434 -18.358   6.474  1.00  0.00    +0.278 C 
ENDBRANCH   5  10
ENDBRANCH   3   4
ENDBRANCH   1   3
BRANCH   1  12
ATOM     12  C   UNL     1      17.733 -19.675   0.707  1.00  0.00    +0.160 A 
ATOM     13  N   UNL     1      18.058 -20.392   1.812  1.00  0.00    -0.227 NA
ATOM     14  C   UNL     1      18.136 -20.116  -0.559  1.00  0.00    +0.191 A 
ATOM     15  C   UNL     1      18.787 -21.511   1.652  1.00  0.00    +0.092 A 
ATOM     16  N   UNL     1      18.886 -21.248  -0.729  1.00  0.00    -0.236 NA
ATOM     17  C   UNL     1      19.139 -22.262   2.767  1.00  0.00    +0.043 A 
ATOM     18  C   UNL     1      19.205 -21.939   0.373  1.00  0.00    +0.090 A 
ATOM     19  C   UNL     1      19.906 -23.433   2.659  1.00  0.00    +0.058 A 
ATOM     20  C   UNL     1      19.957 -23.101   0.262  1.00  0.00    +0.031 A 
ATOM     21  C   UNL     1      20.307 -23.852   1.389  1.00  0.00    +0.015 A 
BRANCH  14  22
ATOM     22  C   UNL     1      17.747 -19.408  -1.821  1.00  0.00    +0.358 C 
ATOM     23  O   UNL     1      17.748 -18.212  -2.049  1.00  0.00    -0.244 OA
BRANCH  22  24
ATOM     24  O   UNL     1      17.372 -20.270  -2.795  1.00  0.00    -0.476 OA
ATOM     25  H   UNL     1      17.946 -20.045  -3.555  1.00  0.00    +0.297 HD
ENDBRANCH  22  24
ENDBRANCH  14  22
BRANCH  19  26
ATOM     26  C   UNL     1      20.251 -24.233   3.892  1.00  0.00    +0.416 C 
ATOM     27  F   UNL     1      19.155 -24.574   4.623  1.00  0.00    -0.166 F 
ATOM     28  F   UNL     1      21.077 -23.568   4.747  1.00  0.00    -0.166 F 
ATOM     29  F   UNL     1      20.881 -25.399   3.589  1.00  0.00    -0.166 F 
ENDBRANCH  19  26
ENDBRANCH   1  12
TORSDOF 7
ENDMDL
MODEL 7
REMARK VINA RESULT:    -7.838      3.317      4.133
REMARK INTER + INTRA:         -11.732
REMARK INTER:                 -10.765
REMARK INTRA:                  -0.967
REMARK UNBOUND:                -0.916
REMARK SMILES COc1ccc(CNc2nc3cc(C(F)(F)F)ccc3nc2C(=O)O)cc1
REMARK SMILES IDX 8 1 7 3 6 4 3 5 4 6 27 7 5 8 26 9 2 10 1 11 9 12 10 13 22 14
REMARK SMILES IDX 11 15 21 16 12 17 20 18 13 19 19 20 18 21 23 22 24 23 25 24
REMARK SMILES IDX 14 26 15 27 16 28 17 29
REMARK H PARENT 8 2 25 25
ROOT
ATOM      1  N   UNL     1      18.503 -21.813  -0.493  1.00  0.00    -0.364 N 
ATOM      2  H   UNL     1      19.307 -21.245  -0.770  1.00  0.00    +0.162 HD
ENDROOT
BRANCH   1   3
ATOM      3  C   UNL     1      18.968 -22.985   0.251  1.00  0.00    +0.150 C 
BRANCH   3   4
ATOM      4  C   UNL     1      20.464 -22.899   0.467  1.00  0.00    -0.029 A 
ATOM      5  C   UNL     1      23.244 -22.678   0.859  1.00  0.00    +0.118 A 
ATOM      6  C   UNL     1      22.732 -23.135  -0.358  1.00  0.00    +0.047 A 
ATOM      7  C   UNL     1      22.362 -22.322   1.879  1.00  0.00    +0.047 A 
ATOM      8  C   UNL     1      21.354 -23.241  -0.557  1.00  0.00    +0.009 A 
ATOM      9  C   UNL     1      20.981 -22.428   1.682  1.00  0.00    +0.009 A 
BRANCH   5  10
ATOM     10  O   UNL     1      24.609 -22.622   0.919  1.00  0.00    -0.497 OA
ATOM     11  C   UNL     1      25.178 -22.023   2.077  1.00  0.00    +0.278 C 
ENDBRANCH   5  10
ENDBRANCH   3   4
ENDBRANCH   1   3
BRANCH   1  12
ATOM     12  C   UNL     1      17.705 -20.937   0.240  1.00  0.00    +0.160 A 
ATOM     13  N   UNL     1      17.398 -21.417   1.470  1.00  0.00    -0.227 NA
ATOM     14  C   UNL     1      17.254 -19.670  -0.151  1.00  0.00    +0.191 A 
ATOM     15  C   UNL     1      16.641 -20.655   2.281  1.00  0.00    +0.092 A 
ATOM     16  N   UNL     1      16.475 -18.893   0.663  1.00  0.00    -0.236 NA
ATOM     17  C   UNL     1      16.308 -21.125   3.545  1.00  0.00    +0.043 A 
ATOM     18  C   UNL     1      16.176 -19.387   1.872  1.00  0.00    +0.090 A 
ATOM     19  C   UNL     1      15.514 -20.377   4.428  1.00  0.00    +0.058 A 
ATOM     20  C   UNL     1      15.396 -18.640   2.746  1.00  0.00    +0.031 A 
ATOM     21  C   UNL     1      15.065 -19.120   4.016  1.00  0.00    +0.015 A 
BRANCH  14  22
ATOM     22  C   UNL     1      17.618 -19.055  -1.468  1.00  0.00    +0.358 C 
ATOM     23  O   UNL     1      18.008 -17.924  -1.694  1.00  0.00    -0.244 OA
BRANCH  22  24
ATOM     24  O   UNL     1      17.489 -19.930  -2.492  1.00  0.00    -0.476 OA
ATOM     25  H   UNL     1      18.070 -19.573  -3.194  1.00  0.00    +0.297 HD
ENDBRANCH  22  24
ENDBRANCH  14  22
BRANCH  19  26
ATOM     26  C   UNL     1      15.190 -20.912   5.801  1.00  0.00    +0.416 C 
ATOM     27  F   UNL     1      15.448 -22.243   5.923  1.00  0.00    -0.166 F 
ATOM     28  F   UNL     1      13.881 -20.754   6.142  1.00  0.00    -0.166 F 
ATOM     29  F   UNL     1      15.911 -20.297   6.777  1.00  0.00    -0.166 F 
ENDBRANCH  19  26
ENDBRANCH   1  12
TORSDOF 7
ENDMDL
MODEL 8
REMARK VINA RESULT:    -7.820      3.890      5.166
REMARK INTER + INTRA:         -11.708
REMARK INTER:                 -10.729
REMARK INTRA:                  -0.978
REMARK UNBOUND:                -0.916
REMARK SMILES COc1ccc(CNc2nc3cc(C(F)(F)F)ccc3nc2C(=O)O)cc1
REMARK SMILES IDX 8 1 7 3 6 4 3 5 4 6 27 7 5 8 26 9 2 10 1 11 9 12 10 13 22 14
REMARK SMILES IDX 11 15 21 16 12 17 20 18 13 19 19 20 18 21 23 22 24 23 25 24
REMARK SMILES IDX 14 26 15 27 16 28 17 29
REMARK H PARENT 8 2 25 25
ROOT
ATOM      1  N   UNL     1      18.274 -22.458  -1.092  1.00  0.00    -0.364 N 
ATOM      2  H   UNL     1      18.013 -22.124  -2.022  1.00  0.00    +0.162 HD
ENDROOT
BRANCH   1   3
ATOM      3  C   UNL     1      19.733 -22.536  -0.995  1.00  0.00    +0.150 C 
BRANCH   3   4
ATOM      4  C   UNL     1      20.349 -22.418  -2.372  1.00  0.00    -0.029 A 
ATOM      5  C   UNL     1      21.515 -22.257  -4.931  1.00  0.00    +0.118 A 
ATOM      6  C   UNL     1      22.149 -21.688  -3.823  1.00  0.00    +0.047 A 
ATOM      7  C   UNL     1      20.300 -22.917  -4.755  1.00  0.00    +0.047 A 
ATOM      8  C   UNL     1      21.575 -21.770  -2.553  1.00  0.00    +0.009 A 
ATOM      9  C   UNL     1      19.722 -23.000  -3.484  1.00  0.00    +0.009 A 
BRANCH   5  10
ATOM     10  O   UNL     1      22.186 -22.104  -6.113  1.00  0.00    -0.497 OA
ATOM     11  C   UNL     1      22.118 -20.825  -6.730  1.00  0.00    +0.278 C 
ENDBRANCH   5  10
ENDBRANCH   3   4
ENDBRANCH   1   3
BRANCH   1  12
ATOM     12  C   UNL     1      17.680 -21.544  -0.224  1.00  0.00    +0.160 A 
ATOM     13  N   UNL     1      17.456 -22.065   1.008  1.00  0.00    -0.227 NA
ATOM     14  C   UNL     1      17.351 -20.209  -0.491  1.00  0.00    +0.191 A 
ATOM     15  C   UNL     1      16.897 -21.275   1.942  1.00  0.00    +0.092 A 
ATOM     16  N   UNL     1      16.773 -19.402   0.451  1.00  0.00    -0.236 NA
ATOM     17  C   UNL     1      16.652 -21.785   3.211  1.00  0.00    +0.043 A 
ATOM     18  C   UNL     1      16.552 -19.935   1.659  1.00  0.00    +0.090 A 
ATOM     19  C   UNL     1      16.063 -21.008   4.221  1.00  0.00    +0.058 A 
ATOM     20  C   UNL     1      15.976 -19.162   2.658  1.00  0.00    +0.031 A 
ATOM     21  C   UNL     1      15.732 -19.681   3.933  1.00  0.00    +0.015 A 
BRANCH  14  22
ATOM     22  C   UNL     1      17.639 -19.556  -1.808  1.00  0.00    +0.358 C 
ATOM     23  O   UNL     1      17.928 -20.082  -2.867  1.00  0.00    -0.244 OA
BRANCH  22  24
ATOM     24  O   UNL     1      17.532 -18.208  -1.743  1.00  0.00    -0.476 OA
ATOM     25  H   UNL     1      17.284 -18.028  -0.813  1.00  0.00    +0.297 HD
ENDBRANCH  22  24
ENDBRANCH  14  22
BRANCH  19  26
ATOM     26  C   UNL     1      15.831 -21.591   5.593  1.00  0.00    +0.416 C 
ATOM     27  F   UNL     1      16.242 -20.766   6.594  1.00  0.00    -0.166 F 
ATOM     28  F   UNL     1      16.485 -22.770   5.790  1.00  0.00    -0.166 F 
ATOM     29  F   UNL     1      14.516 -21.846   5.829  1.00  0.00    -0.166 F 
ENDBRANCH  19  26
ENDBRANCH   1  12
TORSDOF 7
ENDMDL
MODEL 9
REMARK VINA RESULT:    -7.752      5.596      8.658
REMARK INTER + INTRA:         -11.613
REMARK INTER:                 -10.725
REMARK INTRA:                  -0.888
REMARK UNBOUND:                -0.916
REMARK SMILES COc1ccc(CNc2nc3cc(C(F)(F)F)ccc3nc2C(=O)O)cc1
REMARK SMILES IDX 8 1 7 3 6 4 3 5 4 6 27 7 5 8 26 9 2 10 1 11 9 12 10 13 22 14
REMARK SMILES IDX 11 15 21 16 12 17 20 18 13 19 19 20 18 21 23 22 24 23 25 24
REMARK SMILES IDX 14 26 15 27 16 28 17 29
REMARK H PARENT 8 2 25 25
ROOT
ATOM      1  N   UNL     1      17.513 -19.429   1.479  1.00  0.00    -0.364 N 
ATOM      2  H   UNL     1      18.139 -18.639   1.312  1.00  0.00    +0.162 HD
ENDROOT
BRANCH   1   3
ATOM      3  C   UNL     1      16.189 -19.125   0.931  1.00  0.00    +0.150 C 
BRANCH   3   4
ATOM      4  C   UNL     1      15.289 -18.593   2.025  1.00  0.00    -0.029 A 
ATOM      5  C   UNL     1      13.657 -17.563   4.077  1.00  0.00    +0.118 A 
ATOM      6  C   UNL     1      14.353 -18.761   4.256  1.00  0.00    +0.047 A 
ATOM      7  C   UNL     1      13.786 -16.874   2.872  1.00  0.00    +0.047 A 
ATOM      8  C   UNL     1      15.166 -19.272   3.243  1.00  0.00    +0.009 A 
ATOM      9  C   UNL     1      14.599 -17.384   1.854  1.00  0.00    +0.009 A 
BRANCH   5  10
ATOM     10  O   UNL     1      12.899 -17.178   5.149  1.00  0.00    -0.497 OA
ATOM     11  C   UNL     1      12.782 -18.105   6.220  1.00  0.00    +0.278 C 
ENDBRANCH   5  10
ENDBRANCH   3   4
ENDBRANCH   1   3
BRANCH   1  12
ATOM     12  C   UNL     1      18.159 -20.507   0.877  1.00  0.00    +0.160 A 
ATOM     13  N   UNL     1      18.398 -20.301  -0.442  1.00  0.00    -0.227 NA
ATOM     14  C   UNL     1      18.585 -21.692   1.491  1.00  0.00    +0.191 A 
ATOM     15  C   UNL     1      19.030 -21.267  -1.133  1.00  0.00    +0.092 A 
ATOM     16  N   UNL     1      19.219 -22.683   0.793  1.00  0.00    -0.236 NA
ATOM     17  C   UNL     1      19.283 -21.085  -2.487  1.00  0.00    +0.043 A 
ATOM     18  C   UNL     1      19.441 -22.466  -0.510  1.00  0.00    +0.090 A 
ATOM     19  C   UNL     1      19.931 -22.063  -3.258  1.00  0.00    +0.058 A 
ATOM     20  C   UNL     1      20.088 -23.433  -1.268  1.00  0.00    +0.031 A 
ATOM     21  C   UNL     1      20.339 -23.242  -2.630  1.00  0.00    +0.015 A 
BRANCH  14  22
ATOM     22  C   UNL     1      18.414 -21.947   2.957  1.00  0.00    +0.358 C 
ATOM     23  O   UNL     1      17.407 -21.839   3.632  1.00  0.00    -0.244 OA
BRANCH  22  24
ATOM     24  O   UNL     1      19.563 -22.362   3.539  1.00  0.00    -0.476 OA
ATOM     25  H   UNL     1      19.415 -23.312   3.723  1.00  0.00    +0.297 HD
ENDBRANCH  22  24
ENDBRANCH  14  22
BRANCH  19  26
ATOM     26  C   UNL     1      20.207 -21.819  -4.721  1.00  0.00    +0.416 C 
ATOM     27  F   UNL     1      21.500 -21.471  -4.964  1.00  0.00    -0.166 F 
ATOM     28  F   UNL     1      19.447 -20.819  -5.249  1.00  0.00    -0.166 F 
ATOM     29  F   UNL     1      19.962 -22.920  -5.482  1.00  0.00    -0.166 F 
ENDBRANCH  19  26
ENDBRANCH   1  12
TORSDOF 7
ENDMDL
